;
;	File '1G5J.top' was generated
;	By user: lcoustillas (5506)
;	On host: lk-521a-wle-07
;	At date: Mon Sep 14 12:18:58 2026
;
;	This is a standalone topology file
;
;	Created by:
;	                    :-) GROMACS - gmx pdb2gmx, 2025.2 (-:
;	
;	Executable:   /opt/sdv/gromacs-2025.2/bin/gmx
;	Data prefix:  /opt/sdv/gromacs-2025.2
;	Working dir:  /home/sdv/m2isdd/lcoustillas/Projet_Advanced_MD
;	Command line:
;	  gmx pdb2gmx -f 1G5J.pdb -o 1G5J.gro -p 1G5J.top -i 1G5J.itp -ter
;	Force field data was read from:
;	/home/sdv/m2isdd/lcoustillas/Projet_Advanced_MD/gromacs_ff
;
;	Note:
;	This might be a non-standard force field location. When you use this topology, the
;	force field must either be present in the current directory, or the location
;	specified in the GMXLIB path variable or with the 'include' mdp file option.
;

; Include forcefield parameters
#include "/home/sdv/m2isdd/lcoustillas/Projet_Advanced_MD/gromacs_ff/charmm36-jul2022.ff/forcefield.itp"

; Include chain topologies
#include "1G5J_Protein_chain_A.itp"
#include "1G5J_Protein_chain_B.itp"

; Include water topology
#include "/home/sdv/m2isdd/lcoustillas/Projet_Advanced_MD/gromacs_ff/charmm36-jul2022.ff/tip3p.itp"

#ifdef POSRES_WATER
; Position restraint for each water oxygen
[ position_restraints ]
;  i funct       fcx        fcy        fcz
   1    1       1000       1000       1000
#endif

; Include topology for ions
#include "/home/sdv/m2isdd/lcoustillas/Projet_Advanced_MD/gromacs_ff/charmm36-jul2022.ff/ions.itp"

[ system ]
; Name
Protein in water

[ molecules ]
; Compound        #mols
Protein_chain_A     1
Protein_chain_B     1

SOL         17518
NA               10
