;
;	File '1G5J_Protein_chain_B.itp' was generated
;	By user: lcoustillas (5506)
;	On host: lk-521a-wle-07
;	At date: Mon Sep 14 12:20:38 2026
;
;	This is a include topology file
;
;	Created by:
;	                    :-) GROMACS - gmx pdb2gmx, 2025.2 (-:
;	
;	Executable:   /opt/sdv/gromacs-2025.2/bin/gmx
;	Data prefix:  /opt/sdv/gromacs-2025.2
;	Working dir:  /home/sdv/m2isdd/lcoustillas/Projet_Advanced_MD
;	Command line:
;	  gmx pdb2gmx -f 1G5J.pdb -o 1G5J.gro -p 1G5J.top -i 1G5J.itp -ter
;	Force field data was read from:
;	/home/sdv/m2isdd/lcoustillas/Projet_Advanced_MD/gromacs_ff
;
;	Note:
;	This might be a non-standard force field location. When you use this topology, the
;	force field must either be present in the current directory, or the location
;	specified in the GMXLIB path variable or with the 'include' mdp file option.
;

[ moleculetype ]
; Name            nrexcl
Protein_chain_B     3

[ atoms ]
;   nr       type  resnr residue  atom   cgnr     charge       mass  typeB    chargeB      massB
; residue 301 ASN rtp ASN  q +1.0
     1        NH3    301    ASN      N      1       -0.3     14.007
     2         HC    301    ASN     H1      2       0.33      1.008
     3         HC    301    ASN     H2      3       0.33      1.008
     4         HC    301    ASN     H3      4       0.33      1.008
     5        CT1    301    ASN     CA      5       0.21     12.011
     6        HB1    301    ASN     HA      5        0.1      1.008
     7        CT2    301    ASN     CB      6      -0.18     12.011
     8        HA2    301    ASN    HB1      6       0.09      1.008
     9        HA2    301    ASN    HB2      6       0.09      1.008
    10         CC    301    ASN     CG      7       0.55     12.011
    11          O    301    ASN    OD1      7      -0.55    15.9994
    12        NH2    301    ASN    ND2      8      -0.62     14.007
    13          H    301    ASN   HD21      8       0.32      1.008
    14          H    301    ASN   HD22      8        0.3      1.008
    15          C    301    ASN      C      9       0.51     12.011
    16          O    301    ASN      O      9      -0.51    15.9994   ; qtot 1
; residue 302 LEU rtp LEU  q  0.0
    17        NH1    302    LEU      N     10      -0.47     14.007
    18          H    302    LEU     HN     10       0.31      1.008
    19        CT1    302    LEU     CA     10       0.07     12.011
    20        HB1    302    LEU     HA     10       0.09      1.008
    21        CT2    302    LEU     CB     11      -0.18     12.011
    22        HA2    302    LEU    HB1     11       0.09      1.008
    23        HA2    302    LEU    HB2     11       0.09      1.008
    24        CT1    302    LEU     CG     12      -0.09     12.011
    25        HA1    302    LEU     HG     12       0.09      1.008
    26        CT3    302    LEU    CD1     13      -0.27     12.011
    27        HA3    302    LEU   HD11     13       0.09      1.008
    28        HA3    302    LEU   HD12     13       0.09      1.008
    29        HA3    302    LEU   HD13     13       0.09      1.008
    30        CT3    302    LEU    CD2     14      -0.27     12.011
    31        HA3    302    LEU   HD21     14       0.09      1.008
    32        HA3    302    LEU   HD22     14       0.09      1.008
    33        HA3    302    LEU   HD23     14       0.09      1.008
    34          C    302    LEU      C     15       0.51     12.011
    35          O    302    LEU      O     15      -0.51    15.9994   ; qtot 1
; residue 303 TRP rtp TRP  q  0.0
    36        NH1    303    TRP      N     16      -0.47     14.007
    37          H    303    TRP     HN     16       0.31      1.008
    38        CT1    303    TRP     CA     16       0.07     12.011
    39        HB1    303    TRP     HA     16       0.09      1.008
    40        CT2    303    TRP     CB     17      -0.18     12.011
    41        HA2    303    TRP    HB1     17       0.09      1.008
    42        HA2    303    TRP    HB2     17       0.09      1.008
    43         CY    303    TRP     CG     18      -0.03     12.011
    44         CA    303    TRP    CD1     18      -0.15     12.011
    45         HP    303    TRP    HD1     18       0.22      1.008
    46         NY    303    TRP    NE1     18      -0.51     14.007
    47          H    303    TRP    HE1     18       0.37      1.008
    48        CPT    303    TRP    CE2     18       0.24     12.011
    49        CPT    303    TRP    CD2     18       0.11     12.011
    50        CAI    303    TRP    CE3     18      -0.25     12.011
    51         HP    303    TRP    HE3     18       0.17      1.008
    52         CA    303    TRP    CZ3     18       -0.2     12.011
    53         HP    303    TRP    HZ3     18       0.14      1.008
    54        CAI    303    TRP    CZ2     18      -0.27     12.011
    55         HP    303    TRP    HZ2     18       0.16      1.008
    56         CA    303    TRP    CH2     18      -0.14     12.011
    57         HP    303    TRP    HH2     18       0.14      1.008
    58          C    303    TRP      C     19       0.51     12.011
    59          O    303    TRP      O     19      -0.51    15.9994   ; qtot 1
; residue 304 ALA rtp ALA  q  0.0
    60        NH1    304    ALA      N     20      -0.47     14.007
    61          H    304    ALA     HN     20       0.31      1.008
    62        CT1    304    ALA     CA     20       0.07     12.011
    63        HB1    304    ALA     HA     20       0.09      1.008
    64        CT3    304    ALA     CB     21      -0.27     12.011
    65        HA3    304    ALA    HB1     21       0.09      1.008
    66        HA3    304    ALA    HB2     21       0.09      1.008
    67        HA3    304    ALA    HB3     21       0.09      1.008
    68          C    304    ALA      C     22       0.51     12.011
    69          O    304    ALA      O     22      -0.51    15.9994   ; qtot 1
; residue 305 ALA rtp ALA  q  0.0
    70        NH1    305    ALA      N     23      -0.47     14.007
    71          H    305    ALA     HN     23       0.31      1.008
    72        CT1    305    ALA     CA     23       0.07     12.011
    73        HB1    305    ALA     HA     23       0.09      1.008
    74        CT3    305    ALA     CB     24      -0.27     12.011
    75        HA3    305    ALA    HB1     24       0.09      1.008
    76        HA3    305    ALA    HB2     24       0.09      1.008
    77        HA3    305    ALA    HB3     24       0.09      1.008
    78          C    305    ALA      C     25       0.51     12.011
    79          O    305    ALA      O     25      -0.51    15.9994   ; qtot 1
; residue 306 GLN rtp GLN  q  0.0
    80        NH1    306    GLN      N     26      -0.47     14.007
    81          H    306    GLN     HN     26       0.31      1.008
    82        CT1    306    GLN     CA     26       0.07     12.011
    83        HB1    306    GLN     HA     26       0.09      1.008
    84        CT2    306    GLN     CB     27      -0.18     12.011
    85        HA2    306    GLN    HB1     27       0.09      1.008
    86        HA2    306    GLN    HB2     27       0.09      1.008
    87        CT2    306    GLN     CG     28      -0.18     12.011
    88        HA2    306    GLN    HG1     28       0.09      1.008
    89        HA2    306    GLN    HG2     28       0.09      1.008
    90         CC    306    GLN     CD     29       0.55     12.011
    91          O    306    GLN    OE1     29      -0.55    15.9994
    92        NH2    306    GLN    NE2     30      -0.62     14.007
    93          H    306    GLN   HE21     30       0.32      1.008
    94          H    306    GLN   HE22     30        0.3      1.008
    95          C    306    GLN      C     31       0.51     12.011
    96          O    306    GLN      O     31      -0.51    15.9994   ; qtot 1
; residue 307 ARG rtp ARG  q +1.0
    97        NH1    307    ARG      N     32      -0.47     14.007
    98          H    307    ARG     HN     32       0.31      1.008
    99        CT1    307    ARG     CA     32       0.07     12.011
   100        HB1    307    ARG     HA     32       0.09      1.008
   101        CT2    307    ARG     CB     33      -0.18     12.011
   102        HA2    307    ARG    HB1     33       0.09      1.008
   103        HA2    307    ARG    HB2     33       0.09      1.008
   104        CT2    307    ARG     CG     34      -0.18     12.011
   105        HA2    307    ARG    HG1     34       0.09      1.008
   106        HA2    307    ARG    HG2     34       0.09      1.008
   107        CT2    307    ARG     CD     35        0.2     12.011
   108        HA2    307    ARG    HD1     35       0.09      1.008
   109        HA2    307    ARG    HD2     35       0.09      1.008
   110        NC2    307    ARG     NE     35       -0.7     14.007
   111         HC    307    ARG     HE     35       0.44      1.008
   112          C    307    ARG     CZ     35       0.64     12.011
   113        NC2    307    ARG    NH1     35       -0.8     14.007
   114         HC    307    ARG   HH11     35       0.46      1.008
   115         HC    307    ARG   HH12     35       0.46      1.008
   116        NC2    307    ARG    NH2     35       -0.8     14.007
   117         HC    307    ARG   HH21     35       0.46      1.008
   118         HC    307    ARG   HH22     35       0.46      1.008
   119          C    307    ARG      C     36       0.51     12.011
   120          O    307    ARG      O     36      -0.51    15.9994   ; qtot 2
; residue 308 TYR rtp TYR  q  0.0
   121        NH1    308    TYR      N     37      -0.47     14.007
   122          H    308    TYR     HN     37       0.31      1.008
   123        CT1    308    TYR     CA     37       0.07     12.011
   124        HB1    308    TYR     HA     37       0.09      1.008
   125        CT2    308    TYR     CB     38      -0.18     12.011
   126        HA2    308    TYR    HB1     38       0.09      1.008
   127        HA2    308    TYR    HB2     38       0.09      1.008
   128         CA    308    TYR     CG     39          0     12.011
   129         CA    308    TYR    CD1     40     -0.115     12.011
   130         HP    308    TYR    HD1     40      0.115      1.008
   131         CA    308    TYR    CE1     41     -0.115     12.011
   132         HP    308    TYR    HE1     41      0.115      1.008
   133         CA    308    TYR     CZ     42       0.11     12.011
   134        OH1    308    TYR     OH     42      -0.54    15.9994
   135          H    308    TYR     HH     42       0.43      1.008
   136         CA    308    TYR    CD2     43     -0.115     12.011
   137         HP    308    TYR    HD2     43      0.115      1.008
   138         CA    308    TYR    CE2     44     -0.115     12.011
   139         HP    308    TYR    HE2     44      0.115      1.008
   140          C    308    TYR      C     45       0.51     12.011
   141          O    308    TYR      O     45      -0.51    15.9994   ; qtot 2
; residue 309 GLY rtp GLY  q  0.0
   142        NH1    309    GLY      N     46      -0.47     14.007
   143          H    309    GLY     HN     46       0.31      1.008
   144        CT2    309    GLY     CA     46      -0.02     12.011
   145        HB2    309    GLY    HA1     46       0.09      1.008
   146        HB2    309    GLY    HA2     46       0.09      1.008
   147          C    309    GLY      C     47       0.51     12.011
   148          O    309    GLY      O     47      -0.51    15.9994   ; qtot 2
; residue 310 ARG rtp ARG  q +1.0
   149        NH1    310    ARG      N     48      -0.47     14.007
   150          H    310    ARG     HN     48       0.31      1.008
   151        CT1    310    ARG     CA     48       0.07     12.011
   152        HB1    310    ARG     HA     48       0.09      1.008
   153        CT2    310    ARG     CB     49      -0.18     12.011
   154        HA2    310    ARG    HB1     49       0.09      1.008
   155        HA2    310    ARG    HB2     49       0.09      1.008
   156        CT2    310    ARG     CG     50      -0.18     12.011
   157        HA2    310    ARG    HG1     50       0.09      1.008
   158        HA2    310    ARG    HG2     50       0.09      1.008
   159        CT2    310    ARG     CD     51        0.2     12.011
   160        HA2    310    ARG    HD1     51       0.09      1.008
   161        HA2    310    ARG    HD2     51       0.09      1.008
   162        NC2    310    ARG     NE     51       -0.7     14.007
   163         HC    310    ARG     HE     51       0.44      1.008
   164          C    310    ARG     CZ     51       0.64     12.011
   165        NC2    310    ARG    NH1     51       -0.8     14.007
   166         HC    310    ARG   HH11     51       0.46      1.008
   167         HC    310    ARG   HH12     51       0.46      1.008
   168        NC2    310    ARG    NH2     51       -0.8     14.007
   169         HC    310    ARG   HH21     51       0.46      1.008
   170         HC    310    ARG   HH22     51       0.46      1.008
   171          C    310    ARG      C     52       0.51     12.011
   172          O    310    ARG      O     52      -0.51    15.9994   ; qtot 3
; residue 311 GLU rtp GLU  q -1.0
   173        NH1    311    GLU      N     53      -0.47     14.007
   174          H    311    GLU     HN     53       0.31      1.008
   175        CT1    311    GLU     CA     53       0.07     12.011
   176        HB1    311    GLU     HA     53       0.09      1.008
   177       CT2A    311    GLU     CB     54      -0.18     12.011
   178        HA2    311    GLU    HB1     54       0.09      1.008
   179        HA2    311    GLU    HB2     54       0.09      1.008
   180        CT2    311    GLU     CG     55      -0.28     12.011
   181        HA2    311    GLU    HG1     55       0.09      1.008
   182        HA2    311    GLU    HG2     55       0.09      1.008
   183         CC    311    GLU     CD     55       0.62     12.011
   184         OC    311    GLU    OE1     55      -0.76    15.9994
   185         OC    311    GLU    OE2     55      -0.76    15.9994
   186          C    311    GLU      C     56       0.51     12.011
   187          O    311    GLU      O     56      -0.51    15.9994   ; qtot 2
; residue 312 LEU rtp LEU  q  0.0
   188        NH1    312    LEU      N     57      -0.47     14.007
   189          H    312    LEU     HN     57       0.31      1.008
   190        CT1    312    LEU     CA     57       0.07     12.011
   191        HB1    312    LEU     HA     57       0.09      1.008
   192        CT2    312    LEU     CB     58      -0.18     12.011
   193        HA2    312    LEU    HB1     58       0.09      1.008
   194        HA2    312    LEU    HB2     58       0.09      1.008
   195        CT1    312    LEU     CG     59      -0.09     12.011
   196        HA1    312    LEU     HG     59       0.09      1.008
   197        CT3    312    LEU    CD1     60      -0.27     12.011
   198        HA3    312    LEU   HD11     60       0.09      1.008
   199        HA3    312    LEU   HD12     60       0.09      1.008
   200        HA3    312    LEU   HD13     60       0.09      1.008
   201        CT3    312    LEU    CD2     61      -0.27     12.011
   202        HA3    312    LEU   HD21     61       0.09      1.008
   203        HA3    312    LEU   HD22     61       0.09      1.008
   204        HA3    312    LEU   HD23     61       0.09      1.008
   205          C    312    LEU      C     62       0.51     12.011
   206          O    312    LEU      O     62      -0.51    15.9994   ; qtot 2
; residue 313 ARG rtp ARG  q +1.0
   207        NH1    313    ARG      N     63      -0.47     14.007
   208          H    313    ARG     HN     63       0.31      1.008
   209        CT1    313    ARG     CA     63       0.07     12.011
   210        HB1    313    ARG     HA     63       0.09      1.008
   211        CT2    313    ARG     CB     64      -0.18     12.011
   212        HA2    313    ARG    HB1     64       0.09      1.008
   213        HA2    313    ARG    HB2     64       0.09      1.008
   214        CT2    313    ARG     CG     65      -0.18     12.011
   215        HA2    313    ARG    HG1     65       0.09      1.008
   216        HA2    313    ARG    HG2     65       0.09      1.008
   217        CT2    313    ARG     CD     66        0.2     12.011
   218        HA2    313    ARG    HD1     66       0.09      1.008
   219        HA2    313    ARG    HD2     66       0.09      1.008
   220        NC2    313    ARG     NE     66       -0.7     14.007
   221         HC    313    ARG     HE     66       0.44      1.008
   222          C    313    ARG     CZ     66       0.64     12.011
   223        NC2    313    ARG    NH1     66       -0.8     14.007
   224         HC    313    ARG   HH11     66       0.46      1.008
   225         HC    313    ARG   HH12     66       0.46      1.008
   226        NC2    313    ARG    NH2     66       -0.8     14.007
   227         HC    313    ARG   HH21     66       0.46      1.008
   228         HC    313    ARG   HH22     66       0.46      1.008
   229          C    313    ARG      C     67       0.51     12.011
   230          O    313    ARG      O     67      -0.51    15.9994   ; qtot 3
; residue 314 ARG rtp ARG  q +1.0
   231        NH1    314    ARG      N     68      -0.47     14.007
   232          H    314    ARG     HN     68       0.31      1.008
   233        CT1    314    ARG     CA     68       0.07     12.011
   234        HB1    314    ARG     HA     68       0.09      1.008
   235        CT2    314    ARG     CB     69      -0.18     12.011
   236        HA2    314    ARG    HB1     69       0.09      1.008
   237        HA2    314    ARG    HB2     69       0.09      1.008
   238        CT2    314    ARG     CG     70      -0.18     12.011
   239        HA2    314    ARG    HG1     70       0.09      1.008
   240        HA2    314    ARG    HG2     70       0.09      1.008
   241        CT2    314    ARG     CD     71        0.2     12.011
   242        HA2    314    ARG    HD1     71       0.09      1.008
   243        HA2    314    ARG    HD2     71       0.09      1.008
   244        NC2    314    ARG     NE     71       -0.7     14.007
   245         HC    314    ARG     HE     71       0.44      1.008
   246          C    314    ARG     CZ     71       0.64     12.011
   247        NC2    314    ARG    NH1     71       -0.8     14.007
   248         HC    314    ARG   HH11     71       0.46      1.008
   249         HC    314    ARG   HH12     71       0.46      1.008
   250        NC2    314    ARG    NH2     71       -0.8     14.007
   251         HC    314    ARG   HH21     71       0.46      1.008
   252         HC    314    ARG   HH22     71       0.46      1.008
   253          C    314    ARG      C     72       0.51     12.011
   254          O    314    ARG      O     72      -0.51    15.9994   ; qtot 4
; residue 315 MET rtp MET  q  0.0
   255        NH1    315    MET      N     73      -0.47     14.007
   256          H    315    MET     HN     73       0.31      1.008
   257        CT1    315    MET     CA     73       0.07     12.011
   258        HB1    315    MET     HA     73       0.09      1.008
   259        CT2    315    MET     CB     74      -0.18     12.011
   260        HA2    315    MET    HB1     74       0.09      1.008
   261        HA2    315    MET    HB2     74       0.09      1.008
   262        CT2    315    MET     CG     75      -0.14     12.011
   263        HA2    315    MET    HG1     75       0.09      1.008
   264        HA2    315    MET    HG2     75       0.09      1.008
   265          S    315    MET     SD     75      -0.09      32.06
   266        CT3    315    MET     CE     75      -0.22     12.011
   267        HA3    315    MET    HE1     75       0.09      1.008
   268        HA3    315    MET    HE2     75       0.09      1.008
   269        HA3    315    MET    HE3     75       0.09      1.008
   270          C    315    MET      C     76       0.51     12.011
   271          O    315    MET      O     76      -0.51    15.9994   ; qtot 4
; residue 316 SER rtp SER  q  0.0
   272        NH1    316    SER      N     77      -0.47     14.007
   273          H    316    SER     HN     77       0.31      1.008
   274        CT1    316    SER     CA     77       0.07     12.011
   275        HB1    316    SER     HA     77       0.09      1.008
   276        CT2    316    SER     CB     78       0.05     12.011
   277        HA2    316    SER    HB1     78       0.09      1.008
   278        HA2    316    SER    HB2     78       0.09      1.008
   279        OH1    316    SER     OG     78      -0.66    15.9994
   280          H    316    SER    HG1     78       0.43      1.008
   281          C    316    SER      C     79       0.51     12.011
   282          O    316    SER      O     79      -0.51    15.9994   ; qtot 4
; residue 317 ASP rtp ASP  q -1.0
   283        NH1    317    ASP      N     80      -0.47     14.007
   284          H    317    ASP     HN     80       0.31      1.008
   285        CT1    317    ASP     CA     80       0.07     12.011
   286        HB1    317    ASP     HA     80       0.09      1.008
   287       CT2A    317    ASP     CB     81      -0.28     12.011
   288        HA2    317    ASP    HB1     81       0.09      1.008
   289        HA2    317    ASP    HB2     81       0.09      1.008
   290         CC    317    ASP     CG     81       0.62     12.011
   291         OC    317    ASP    OD1     81      -0.76    15.9994
   292         OC    317    ASP    OD2     81      -0.76    15.9994
   293          C    317    ASP      C     82       0.51     12.011
   294          O    317    ASP      O     82      -0.51    15.9994   ; qtot 3
; residue 318 GLU rtp GLU  q -1.0
   295        NH1    318    GLU      N     83      -0.47     14.007
   296          H    318    GLU     HN     83       0.31      1.008
   297        CT1    318    GLU     CA     83       0.07     12.011
   298        HB1    318    GLU     HA     83       0.09      1.008
   299       CT2A    318    GLU     CB     84      -0.18     12.011
   300        HA2    318    GLU    HB1     84       0.09      1.008
   301        HA2    318    GLU    HB2     84       0.09      1.008
   302        CT2    318    GLU     CG     85      -0.28     12.011
   303        HA2    318    GLU    HG1     85       0.09      1.008
   304        HA2    318    GLU    HG2     85       0.09      1.008
   305         CC    318    GLU     CD     85       0.62     12.011
   306         OC    318    GLU    OE1     85      -0.76    15.9994
   307         OC    318    GLU    OE2     85      -0.76    15.9994
   308          C    318    GLU      C     86       0.51     12.011
   309          O    318    GLU      O     86      -0.51    15.9994   ; qtot 2
; residue 319 PHE rtp PHE  q  0.0
   310        NH1    319    PHE      N     87      -0.47     14.007
   311          H    319    PHE     HN     87       0.31      1.008
   312        CT1    319    PHE     CA     87       0.07     12.011
   313        HB1    319    PHE     HA     87       0.09      1.008
   314        CT2    319    PHE     CB     88      -0.18     12.011
   315        HA2    319    PHE    HB1     88       0.09      1.008
   316        HA2    319    PHE    HB2     88       0.09      1.008
   317         CA    319    PHE     CG     89          0     12.011
   318         CA    319    PHE    CD1     90     -0.115     12.011
   319         HP    319    PHE    HD1     90      0.115      1.008
   320         CA    319    PHE    CE1     91     -0.115     12.011
   321         HP    319    PHE    HE1     91      0.115      1.008
   322         CA    319    PHE     CZ     92     -0.115     12.011
   323         HP    319    PHE     HZ     92      0.115      1.008
   324         CA    319    PHE    CD2     93     -0.115     12.011
   325         HP    319    PHE    HD2     93      0.115      1.008
   326         CA    319    PHE    CE2     94     -0.115     12.011
   327         HP    319    PHE    HE2     94      0.115      1.008
   328          C    319    PHE      C     95       0.51     12.011
   329          O    319    PHE      O     95      -0.51    15.9994   ; qtot 2
; residue 320 VAL rtp VAL  q  0.0
   330        NH1    320    VAL      N     96      -0.47     14.007
   331          H    320    VAL     HN     96       0.31      1.008
   332        CT1    320    VAL     CA     96       0.07     12.011
   333        HB1    320    VAL     HA     96       0.09      1.008
   334        CT1    320    VAL     CB     97      -0.09     12.011
   335        HA1    320    VAL     HB     97       0.09      1.008
   336        CT3    320    VAL    CG1     98      -0.27     12.011
   337        HA3    320    VAL   HG11     98       0.09      1.008
   338        HA3    320    VAL   HG12     98       0.09      1.008
   339        HA3    320    VAL   HG13     98       0.09      1.008
   340        CT3    320    VAL    CG2     99      -0.27     12.011
   341        HA3    320    VAL   HG21     99       0.09      1.008
   342        HA3    320    VAL   HG22     99       0.09      1.008
   343        HA3    320    VAL   HG23     99       0.09      1.008
   344          C    320    VAL      C    100       0.51     12.011
   345          O    320    VAL      O    100      -0.51    15.9994   ; qtot 2
; residue 321 ASP rtp ASP  q -1.0
   346        NH1    321    ASP      N    101      -0.47     14.007
   347          H    321    ASP     HN    101       0.31      1.008
   348        CT1    321    ASP     CA    101       0.07     12.011
   349        HB1    321    ASP     HA    101       0.09      1.008
   350       CT2A    321    ASP     CB    102      -0.28     12.011
   351        HA2    321    ASP    HB1    102       0.09      1.008
   352        HA2    321    ASP    HB2    102       0.09      1.008
   353         CC    321    ASP     CG    102       0.62     12.011
   354         OC    321    ASP    OD1    102      -0.76    15.9994
   355         OC    321    ASP    OD2    102      -0.76    15.9994
   356          C    321    ASP      C    103       0.51     12.011
   357          O    321    ASP      O    103      -0.51    15.9994   ; qtot 1
; residue 322 SER rtp SER  q  0.0
   358        NH1    322    SER      N    104      -0.47     14.007
   359          H    322    SER     HN    104       0.31      1.008
   360        CT1    322    SER     CA    104       0.07     12.011
   361        HB1    322    SER     HA    104       0.09      1.008
   362        CT2    322    SER     CB    105       0.05     12.011
   363        HA2    322    SER    HB1    105       0.09      1.008
   364        HA2    322    SER    HB2    105       0.09      1.008
   365        OH1    322    SER     OG    105      -0.66    15.9994
   366          H    322    SER    HG1    105       0.43      1.008
   367          C    322    SER      C    106       0.51     12.011
   368          O    322    SER      O    106      -0.51    15.9994   ; qtot 1
; residue 323 PHE rtp PHE  q  0.0
   369        NH1    323    PHE      N    107      -0.47     14.007
   370          H    323    PHE     HN    107       0.31      1.008
   371        CT1    323    PHE     CA    107       0.07     12.011
   372        HB1    323    PHE     HA    107       0.09      1.008
   373        CT2    323    PHE     CB    108      -0.18     12.011
   374        HA2    323    PHE    HB1    108       0.09      1.008
   375        HA2    323    PHE    HB2    108       0.09      1.008
   376         CA    323    PHE     CG    109          0     12.011
   377         CA    323    PHE    CD1    110     -0.115     12.011
   378         HP    323    PHE    HD1    110      0.115      1.008
   379         CA    323    PHE    CE1    111     -0.115     12.011
   380         HP    323    PHE    HE1    111      0.115      1.008
   381         CA    323    PHE     CZ    112     -0.115     12.011
   382         HP    323    PHE     HZ    112      0.115      1.008
   383         CA    323    PHE    CD2    113     -0.115     12.011
   384         HP    323    PHE    HD2    113      0.115      1.008
   385         CA    323    PHE    CE2    114     -0.115     12.011
   386         HP    323    PHE    HE2    114      0.115      1.008
   387          C    323    PHE      C    115       0.51     12.011
   388          O    323    PHE      O    115      -0.51    15.9994   ; qtot 1
; residue 324 LYS rtp LYS  q +1.0
   389        NH1    324    LYS      N    116      -0.47     14.007
   390          H    324    LYS     HN    116       0.31      1.008
   391        CT1    324    LYS     CA    116       0.07     12.011
   392        HB1    324    LYS     HA    116       0.09      1.008
   393        CT2    324    LYS     CB    117      -0.18     12.011
   394        HA2    324    LYS    HB1    117       0.09      1.008
   395        HA2    324    LYS    HB2    117       0.09      1.008
   396        CT2    324    LYS     CG    118      -0.18     12.011
   397        HA2    324    LYS    HG1    118       0.09      1.008
   398        HA2    324    LYS    HG2    118       0.09      1.008
   399        CT2    324    LYS     CD    119      -0.18     12.011
   400        HA2    324    LYS    HD1    119       0.09      1.008
   401        HA2    324    LYS    HD2    119       0.09      1.008
   402        CT2    324    LYS     CE    120       0.21     12.011
   403        HA2    324    LYS    HE1    120       0.05      1.008
   404        HA2    324    LYS    HE2    120       0.05      1.008
   405        NH3    324    LYS     NZ    120       -0.3     14.007
   406         HC    324    LYS    HZ1    120       0.33      1.008
   407         HC    324    LYS    HZ2    120       0.33      1.008
   408         HC    324    LYS    HZ3    120       0.33      1.008
   409          C    324    LYS      C    121       0.51     12.011
   410          O    324    LYS      O    121      -0.51    15.9994   ; qtot 2
; residue 325 LYS rtp LYS  q  0.0
   411        NH1    325    LYS      N    122      -0.47     14.007
   412          H    325    LYS     HN    122       0.31      1.008
   413        CT1    325    LYS     CA    122       0.07     12.011
   414        HB1    325    LYS     HA    122       0.09      1.008
   415        CT2    325    LYS     CB    123      -0.18     12.011
   416        HA2    325    LYS    HB1    123       0.09      1.008
   417        HA2    325    LYS    HB2    123       0.09      1.008
   418        CT2    325    LYS     CG    124      -0.18     12.011
   419        HA2    325    LYS    HG1    124       0.09      1.008
   420        HA2    325    LYS    HG2    124       0.09      1.008
   421        CT2    325    LYS     CD    125      -0.18     12.011
   422        HA2    325    LYS    HD1    125       0.09      1.008
   423        HA2    325    LYS    HD2    125       0.09      1.008
   424        CT2    325    LYS     CE    126       0.21     12.011
   425        HA2    325    LYS    HE1    126       0.05      1.008
   426        HA2    325    LYS    HE2    126       0.05      1.008
   427        NH3    325    LYS     NZ    126       -0.3     14.007
   428         HC    325    LYS    HZ1    126       0.33      1.008
   429         HC    325    LYS    HZ2    126       0.33      1.008
   430         HC    325    LYS    HZ3    126       0.33      1.008
   431         CC    325    LYS      C    127       0.34     12.011
   432         OC    325    LYS    OT1    128      -0.67    15.9994
   433         OC    325    LYS    OT2    129      -0.67    15.9994   ; qtot 2

[ bonds ]
;  ai    aj funct            c0            c1            c2            c3
    1     2     1 
    1     3     1 
    1     4     1 
    1     5     1 
    5     6     1 
    5     7     1 
    5    15     1 
    7     8     1 
    7     9     1 
    7    10     1 
   10    11     1 
   10    12     1 
   12    13     1 
   12    14     1 
   15    16     1 
   15    17     1 
   17    18     1 
   17    19     1 
   19    20     1 
   19    21     1 
   19    34     1 
   21    22     1 
   21    23     1 
   21    24     1 
   24    25     1 
   24    26     1 
   24    30     1 
   26    27     1 
   26    28     1 
   26    29     1 
   30    31     1 
   30    32     1 
   30    33     1 
   34    35     1 
   34    36     1 
   36    37     1 
   36    38     1 
   38    39     1 
   38    40     1 
   38    58     1 
   40    41     1 
   40    42     1 
   40    43     1 
   43    44     1 
   43    49     1 
   44    45     1 
   44    46     1 
   46    47     1 
   46    48     1 
   48    49     1 
   48    54     1 
   49    50     1 
   50    51     1 
   50    52     1 
   52    53     1 
   52    56     1 
   54    55     1 
   54    56     1 
   56    57     1 
   58    59     1 
   58    60     1 
   60    61     1 
   60    62     1 
   62    63     1 
   62    64     1 
   62    68     1 
   64    65     1 
   64    66     1 
   64    67     1 
   68    69     1 
   68    70     1 
   70    71     1 
   70    72     1 
   72    73     1 
   72    74     1 
   72    78     1 
   74    75     1 
   74    76     1 
   74    77     1 
   78    79     1 
   78    80     1 
   80    81     1 
   80    82     1 
   82    83     1 
   82    84     1 
   82    95     1 
   84    85     1 
   84    86     1 
   84    87     1 
   87    88     1 
   87    89     1 
   87    90     1 
   90    91     1 
   90    92     1 
   92    93     1 
   92    94     1 
   95    96     1 
   95    97     1 
   97    98     1 
   97    99     1 
   99   100     1 
   99   101     1 
   99   119     1 
  101   102     1 
  101   103     1 
  101   104     1 
  104   105     1 
  104   106     1 
  104   107     1 
  107   108     1 
  107   109     1 
  107   110     1 
  110   111     1 
  110   112     1 
  112   113     1 
  112   116     1 
  113   114     1 
  113   115     1 
  116   117     1 
  116   118     1 
  119   120     1 
  119   121     1 
  121   122     1 
  121   123     1 
  123   124     1 
  123   125     1 
  123   140     1 
  125   126     1 
  125   127     1 
  125   128     1 
  128   129     1 
  128   136     1 
  129   130     1 
  129   131     1 
  131   132     1 
  131   133     1 
  133   134     1 
  133   138     1 
  134   135     1 
  136   137     1 
  136   138     1 
  138   139     1 
  140   141     1 
  140   142     1 
  142   143     1 
  142   144     1 
  144   145     1 
  144   146     1 
  144   147     1 
  147   148     1 
  147   149     1 
  149   150     1 
  149   151     1 
  151   152     1 
  151   153     1 
  151   171     1 
  153   154     1 
  153   155     1 
  153   156     1 
  156   157     1 
  156   158     1 
  156   159     1 
  159   160     1 
  159   161     1 
  159   162     1 
  162   163     1 
  162   164     1 
  164   165     1 
  164   168     1 
  165   166     1 
  165   167     1 
  168   169     1 
  168   170     1 
  171   172     1 
  171   173     1 
  173   174     1 
  173   175     1 
  175   176     1 
  175   177     1 
  175   186     1 
  177   178     1 
  177   179     1 
  177   180     1 
  180   181     1 
  180   182     1 
  180   183     1 
  183   184     1 
  183   185     1 
  186   187     1 
  186   188     1 
  188   189     1 
  188   190     1 
  190   191     1 
  190   192     1 
  190   205     1 
  192   193     1 
  192   194     1 
  192   195     1 
  195   196     1 
  195   197     1 
  195   201     1 
  197   198     1 
  197   199     1 
  197   200     1 
  201   202     1 
  201   203     1 
  201   204     1 
  205   206     1 
  205   207     1 
  207   208     1 
  207   209     1 
  209   210     1 
  209   211     1 
  209   229     1 
  211   212     1 
  211   213     1 
  211   214     1 
  214   215     1 
  214   216     1 
  214   217     1 
  217   218     1 
  217   219     1 
  217   220     1 
  220   221     1 
  220   222     1 
  222   223     1 
  222   226     1 
  223   224     1 
  223   225     1 
  226   227     1 
  226   228     1 
  229   230     1 
  229   231     1 
  231   232     1 
  231   233     1 
  233   234     1 
  233   235     1 
  233   253     1 
  235   236     1 
  235   237     1 
  235   238     1 
  238   239     1 
  238   240     1 
  238   241     1 
  241   242     1 
  241   243     1 
  241   244     1 
  244   245     1 
  244   246     1 
  246   247     1 
  246   250     1 
  247   248     1 
  247   249     1 
  250   251     1 
  250   252     1 
  253   254     1 
  253   255     1 
  255   256     1 
  255   257     1 
  257   258     1 
  257   259     1 
  257   270     1 
  259   260     1 
  259   261     1 
  259   262     1 
  262   263     1 
  262   264     1 
  262   265     1 
  265   266     1 
  266   267     1 
  266   268     1 
  266   269     1 
  270   271     1 
  270   272     1 
  272   273     1 
  272   274     1 
  274   275     1 
  274   276     1 
  274   281     1 
  276   277     1 
  276   278     1 
  276   279     1 
  279   280     1 
  281   282     1 
  281   283     1 
  283   284     1 
  283   285     1 
  285   286     1 
  285   287     1 
  285   293     1 
  287   288     1 
  287   289     1 
  287   290     1 
  290   291     1 
  290   292     1 
  293   294     1 
  293   295     1 
  295   296     1 
  295   297     1 
  297   298     1 
  297   299     1 
  297   308     1 
  299   300     1 
  299   301     1 
  299   302     1 
  302   303     1 
  302   304     1 
  302   305     1 
  305   306     1 
  305   307     1 
  308   309     1 
  308   310     1 
  310   311     1 
  310   312     1 
  312   313     1 
  312   314     1 
  312   328     1 
  314   315     1 
  314   316     1 
  314   317     1 
  317   318     1 
  317   324     1 
  318   319     1 
  318   320     1 
  320   321     1 
  320   322     1 
  322   323     1 
  322   326     1 
  324   325     1 
  324   326     1 
  326   327     1 
  328   329     1 
  328   330     1 
  330   331     1 
  330   332     1 
  332   333     1 
  332   334     1 
  332   344     1 
  334   335     1 
  334   336     1 
  334   340     1 
  336   337     1 
  336   338     1 
  336   339     1 
  340   341     1 
  340   342     1 
  340   343     1 
  344   345     1 
  344   346     1 
  346   347     1 
  346   348     1 
  348   349     1 
  348   350     1 
  348   356     1 
  350   351     1 
  350   352     1 
  350   353     1 
  353   354     1 
  353   355     1 
  356   357     1 
  356   358     1 
  358   359     1 
  358   360     1 
  360   361     1 
  360   362     1 
  360   367     1 
  362   363     1 
  362   364     1 
  362   365     1 
  365   366     1 
  367   368     1 
  367   369     1 
  369   370     1 
  369   371     1 
  371   372     1 
  371   373     1 
  371   387     1 
  373   374     1 
  373   375     1 
  373   376     1 
  376   377     1 
  376   383     1 
  377   378     1 
  377   379     1 
  379   380     1 
  379   381     1 
  381   382     1 
  381   385     1 
  383   384     1 
  383   385     1 
  385   386     1 
  387   388     1 
  387   389     1 
  389   390     1 
  389   391     1 
  391   392     1 
  391   393     1 
  391   409     1 
  393   394     1 
  393   395     1 
  393   396     1 
  396   397     1 
  396   398     1 
  396   399     1 
  399   400     1 
  399   401     1 
  399   402     1 
  402   403     1 
  402   404     1 
  402   405     1 
  405   406     1 
  405   407     1 
  405   408     1 
  409   410     1 
  409   411     1 
  411   412     1 
  411   413     1 
  413   414     1 
  413   415     1 
  413   431     1 
  415   416     1 
  415   417     1 
  415   418     1 
  418   419     1 
  418   420     1 
  418   421     1 
  421   422     1 
  421   423     1 
  421   424     1 
  424   425     1 
  424   426     1 
  424   427     1 
  427   428     1 
  427   429     1 
  427   430     1 
  431   432     1 
  431   433     1 

[ pairs ]
;  ai    aj funct            c0            c1            c2            c3
    1     8     1 
    1     9     1 
    1    10     1 
    1    16     1 
    1    17     1 
    2     6     1 
    2     7     1 
    2    15     1 
    3     6     1 
    3     7     1 
    3    15     1 
    4     6     1 
    4     7     1 
    4    15     1 
    5    11     1 
    5    12     1 
    5    18     1 
    5    19     1 
    6     8     1 
    6     9     1 
    6    10     1 
    6    16     1 
    6    17     1 
    7    13     1 
    7    14     1 
    7    16     1 
    7    17     1 
    8    11     1 
    8    12     1 
    8    15     1 
    9    11     1 
    9    12     1 
    9    15     1 
   10    15     1 
   11    13     1 
   11    14     1 
   15    20     1 
   15    21     1 
   15    34     1 
   16    18     1 
   16    19     1 
   17    22     1 
   17    23     1 
   17    24     1 
   17    35     1 
   17    36     1 
   18    20     1 
   18    21     1 
   18    34     1 
   19    25     1 
   19    26     1 
   19    30     1 
   19    37     1 
   19    38     1 
   20    22     1 
   20    23     1 
   20    24     1 
   20    35     1 
   20    36     1 
   21    27     1 
   21    28     1 
   21    29     1 
   21    31     1 
   21    32     1 
   21    33     1 
   21    35     1 
   21    36     1 
   22    25     1 
   22    26     1 
   22    30     1 
   22    34     1 
   23    25     1 
   23    26     1 
   23    30     1 
   23    34     1 
   24    34     1 
   25    27     1 
   25    28     1 
   25    29     1 
   25    31     1 
   25    32     1 
   25    33     1 
   26    31     1 
   26    32     1 
   26    33     1 
   27    30     1 
   28    30     1 
   29    30     1 
   34    39     1 
   34    40     1 
   34    58     1 
   35    37     1 
   35    38     1 
   36    41     1 
   36    42     1 
   36    43     1 
   36    59     1 
   36    60     1 
   37    39     1 
   37    40     1 
   37    58     1 
   38    44     1 
   38    49     1 
   38    61     1 
   38    62     1 
   39    41     1 
   39    42     1 
   39    43     1 
   39    59     1 
   39    60     1 
   40    45     1 
   40    46     1 
   40    48     1 
   40    50     1 
   40    59     1 
   40    60     1 
   41    44     1 
   41    49     1 
   41    58     1 
   42    44     1 
   42    49     1 
   42    58     1 
   43    47     1 
   43    51     1 
   43    52     1 
   43    54     1 
   43    58     1 
   44    50     1 
   44    54     1 
   45    47     1 
   45    48     1 
   45    49     1 
   46    50     1 
   46    55     1 
   46    56     1 
   47    49     1 
   47    54     1 
   48    51     1 
   48    52     1 
   48    57     1 
   49    53     1 
   49    55     1 
   49    56     1 
   50    54     1 
   50    57     1 
   51    53     1 
   51    56     1 
   52    55     1 
   53    54     1 
   53    57     1 
   55    57     1 
   58    63     1 
   58    64     1 
   58    68     1 
   59    61     1 
   59    62     1 
   60    65     1 
   60    66     1 
   60    67     1 
   60    69     1 
   60    70     1 
   61    63     1 
   61    64     1 
   61    68     1 
   62    71     1 
   62    72     1 
   63    65     1 
   63    66     1 
   63    67     1 
   63    69     1 
   63    70     1 
   64    69     1 
   64    70     1 
   65    68     1 
   66    68     1 
   67    68     1 
   68    73     1 
   68    74     1 
   68    78     1 
   69    71     1 
   69    72     1 
   70    75     1 
   70    76     1 
   70    77     1 
   70    79     1 
   70    80     1 
   71    73     1 
   71    74     1 
   71    78     1 
   72    81     1 
   72    82     1 
   73    75     1 
   73    76     1 
   73    77     1 
   73    79     1 
   73    80     1 
   74    79     1 
   74    80     1 
   75    78     1 
   76    78     1 
   77    78     1 
   78    83     1 
   78    84     1 
   78    95     1 
   79    81     1 
   79    82     1 
   80    85     1 
   80    86     1 
   80    87     1 
   80    96     1 
   80    97     1 
   81    83     1 
   81    84     1 
   81    95     1 
   82    88     1 
   82    89     1 
   82    90     1 
   82    98     1 
   82    99     1 
   83    85     1 
   83    86     1 
   83    87     1 
   83    96     1 
   83    97     1 
   84    91     1 
   84    92     1 
   84    96     1 
   84    97     1 
   85    88     1 
   85    89     1 
   85    90     1 
   85    95     1 
   86    88     1 
   86    89     1 
   86    90     1 
   86    95     1 
   87    93     1 
   87    94     1 
   87    95     1 
   88    91     1 
   88    92     1 
   89    91     1 
   89    92     1 
   91    93     1 
   91    94     1 
   95   100     1 
   95   101     1 
   95   119     1 
   96    98     1 
   96    99     1 
   97   102     1 
   97   103     1 
   97   104     1 
   97   120     1 
   97   121     1 
   98   100     1 
   98   101     1 
   98   119     1 
   99   105     1 
   99   106     1 
   99   107     1 
   99   122     1 
   99   123     1 
  100   102     1 
  100   103     1 
  100   104     1 
  100   120     1 
  100   121     1 
  101   108     1 
  101   109     1 
  101   110     1 
  101   120     1 
  101   121     1 
  102   105     1 
  102   106     1 
  102   107     1 
  102   119     1 
  103   105     1 
  103   106     1 
  103   107     1 
  103   119     1 
  104   111     1 
  104   112     1 
  104   119     1 
  105   108     1 
  105   109     1 
  105   110     1 
  106   108     1 
  106   109     1 
  106   110     1 
  107   113     1 
  107   116     1 
  108   111     1 
  108   112     1 
  109   111     1 
  109   112     1 
  110   114     1 
  110   115     1 
  110   117     1 
  110   118     1 
  111   113     1 
  111   116     1 
  113   117     1 
  113   118     1 
  114   116     1 
  115   116     1 
  119   124     1 
  119   125     1 
  119   140     1 
  120   122     1 
  120   123     1 
  121   126     1 
  121   127     1 
  121   128     1 
  121   141     1 
  121   142     1 
  122   124     1 
  122   125     1 
  122   140     1 
  123   129     1 
  123   136     1 
  123   143     1 
  123   144     1 
  124   126     1 
  124   127     1 
  124   128     1 
  124   141     1 
  124   142     1 
  125   130     1 
  125   131     1 
  125   137     1 
  125   138     1 
  125   141     1 
  125   142     1 
  126   129     1 
  126   136     1 
  126   140     1 
  127   129     1 
  127   136     1 
  127   140     1 
  128   132     1 
  128   133     1 
  128   139     1 
  128   140     1 
  129   134     1 
  129   137     1 
  129   138     1 
  130   132     1 
  130   133     1 
  130   136     1 
  131   135     1 
  131   136     1 
  131   139     1 
  132   134     1 
  132   138     1 
  133   137     1 
  134   136     1 
  134   139     1 
  135   138     1 
  137   139     1 
  140   145     1 
  140   146     1 
  140   147     1 
  141   143     1 
  141   144     1 
  142   148     1 
  142   149     1 
  143   145     1 
  143   146     1 
  143   147     1 
  144   150     1 
  144   151     1 
  145   148     1 
  145   149     1 
  146   148     1 
  146   149     1 
  147   152     1 
  147   153     1 
  147   171     1 
  148   150     1 
  148   151     1 
  149   154     1 
  149   155     1 
  149   156     1 
  149   172     1 
  149   173     1 
  150   152     1 
  150   153     1 
  150   171     1 
  151   157     1 
  151   158     1 
  151   159     1 
  151   174     1 
  151   175     1 
  152   154     1 
  152   155     1 
  152   156     1 
  152   172     1 
  152   173     1 
  153   160     1 
  153   161     1 
  153   162     1 
  153   172     1 
  153   173     1 
  154   157     1 
  154   158     1 
  154   159     1 
  154   171     1 
  155   157     1 
  155   158     1 
  155   159     1 
  155   171     1 
  156   163     1 
  156   164     1 
  156   171     1 
  157   160     1 
  157   161     1 
  157   162     1 
  158   160     1 
  158   161     1 
  158   162     1 
  159   165     1 
  159   168     1 
  160   163     1 
  160   164     1 
  161   163     1 
  161   164     1 
  162   166     1 
  162   167     1 
  162   169     1 
  162   170     1 
  163   165     1 
  163   168     1 
  165   169     1 
  165   170     1 
  166   168     1 
  167   168     1 
  171   176     1 
  171   177     1 
  171   186     1 
  172   174     1 
  172   175     1 
  173   178     1 
  173   179     1 
  173   180     1 
  173   187     1 
  173   188     1 
  174   176     1 
  174   177     1 
  174   186     1 
  175   181     1 
  175   182     1 
  175   183     1 
  175   189     1 
  175   190     1 
  176   178     1 
  176   179     1 
  176   180     1 
  176   187     1 
  176   188     1 
  177   184     1 
  177   185     1 
  177   187     1 
  177   188     1 
  178   181     1 
  178   182     1 
  178   183     1 
  178   186     1 
  179   181     1 
  179   182     1 
  179   183     1 
  179   186     1 
  180   186     1 
  181   184     1 
  181   185     1 
  182   184     1 
  182   185     1 
  186   191     1 
  186   192     1 
  186   205     1 
  187   189     1 
  187   190     1 
  188   193     1 
  188   194     1 
  188   195     1 
  188   206     1 
  188   207     1 
  189   191     1 
  189   192     1 
  189   205     1 
  190   196     1 
  190   197     1 
  190   201     1 
  190   208     1 
  190   209     1 
  191   193     1 
  191   194     1 
  191   195     1 
  191   206     1 
  191   207     1 
  192   198     1 
  192   199     1 
  192   200     1 
  192   202     1 
  192   203     1 
  192   204     1 
  192   206     1 
  192   207     1 
  193   196     1 
  193   197     1 
  193   201     1 
  193   205     1 
  194   196     1 
  194   197     1 
  194   201     1 
  194   205     1 
  195   205     1 
  196   198     1 
  196   199     1 
  196   200     1 
  196   202     1 
  196   203     1 
  196   204     1 
  197   202     1 
  197   203     1 
  197   204     1 
  198   201     1 
  199   201     1 
  200   201     1 
  205   210     1 
  205   211     1 
  205   229     1 
  206   208     1 
  206   209     1 
  207   212     1 
  207   213     1 
  207   214     1 
  207   230     1 
  207   231     1 
  208   210     1 
  208   211     1 
  208   229     1 
  209   215     1 
  209   216     1 
  209   217     1 
  209   232     1 
  209   233     1 
  210   212     1 
  210   213     1 
  210   214     1 
  210   230     1 
  210   231     1 
  211   218     1 
  211   219     1 
  211   220     1 
  211   230     1 
  211   231     1 
  212   215     1 
  212   216     1 
  212   217     1 
  212   229     1 
  213   215     1 
  213   216     1 
  213   217     1 
  213   229     1 
  214   221     1 
  214   222     1 
  214   229     1 
  215   218     1 
  215   219     1 
  215   220     1 
  216   218     1 
  216   219     1 
  216   220     1 
  217   223     1 
  217   226     1 
  218   221     1 
  218   222     1 
  219   221     1 
  219   222     1 
  220   224     1 
  220   225     1 
  220   227     1 
  220   228     1 
  221   223     1 
  221   226     1 
  223   227     1 
  223   228     1 
  224   226     1 
  225   226     1 
  229   234     1 
  229   235     1 
  229   253     1 
  230   232     1 
  230   233     1 
  231   236     1 
  231   237     1 
  231   238     1 
  231   254     1 
  231   255     1 
  232   234     1 
  232   235     1 
  232   253     1 
  233   239     1 
  233   240     1 
  233   241     1 
  233   256     1 
  233   257     1 
  234   236     1 
  234   237     1 
  234   238     1 
  234   254     1 
  234   255     1 
  235   242     1 
  235   243     1 
  235   244     1 
  235   254     1 
  235   255     1 
  236   239     1 
  236   240     1 
  236   241     1 
  236   253     1 
  237   239     1 
  237   240     1 
  237   241     1 
  237   253     1 
  238   245     1 
  238   246     1 
  238   253     1 
  239   242     1 
  239   243     1 
  239   244     1 
  240   242     1 
  240   243     1 
  240   244     1 
  241   247     1 
  241   250     1 
  242   245     1 
  242   246     1 
  243   245     1 
  243   246     1 
  244   248     1 
  244   249     1 
  244   251     1 
  244   252     1 
  245   247     1 
  245   250     1 
  247   251     1 
  247   252     1 
  248   250     1 
  249   250     1 
  253   258     1 
  253   259     1 
  253   270     1 
  254   256     1 
  254   257     1 
  255   260     1 
  255   261     1 
  255   262     1 
  255   271     1 
  255   272     1 
  256   258     1 
  256   259     1 
  256   270     1 
  257   263     1 
  257   264     1 
  257   265     1 
  257   273     1 
  257   274     1 
  258   260     1 
  258   261     1 
  258   262     1 
  258   271     1 
  258   272     1 
  259   266     1 
  259   271     1 
  259   272     1 
  260   263     1 
  260   264     1 
  260   265     1 
  260   270     1 
  261   263     1 
  261   264     1 
  261   265     1 
  261   270     1 
  262   267     1 
  262   268     1 
  262   269     1 
  262   270     1 
  263   266     1 
  264   266     1 
  270   275     1 
  270   276     1 
  270   281     1 
  271   273     1 
  271   274     1 
  272   277     1 
  272   278     1 
  272   279     1 
  272   282     1 
  272   283     1 
  273   275     1 
  273   276     1 
  273   281     1 
  274   280     1 
  274   284     1 
  274   285     1 
  275   277     1 
  275   278     1 
  275   279     1 
  275   282     1 
  275   283     1 
  276   282     1 
  276   283     1 
  277   280     1 
  277   281     1 
  278   280     1 
  278   281     1 
  279   281     1 
  281   286     1 
  281   287     1 
  281   293     1 
  282   284     1 
  282   285     1 
  283   288     1 
  283   289     1 
  283   290     1 
  283   294     1 
  283   295     1 
  284   286     1 
  284   287     1 
  284   293     1 
  285   291     1 
  285   292     1 
  285   296     1 
  285   297     1 
  286   288     1 
  286   289     1 
  286   290     1 
  286   294     1 
  286   295     1 
  287   294     1 
  287   295     1 
  288   291     1 
  288   292     1 
  288   293     1 
  289   291     1 
  289   292     1 
  289   293     1 
  290   293     1 
  293   298     1 
  293   299     1 
  293   308     1 
  294   296     1 
  294   297     1 
  295   300     1 
  295   301     1 
  295   302     1 
  295   309     1 
  295   310     1 
  296   298     1 
  296   299     1 
  296   308     1 
  297   303     1 
  297   304     1 
  297   305     1 
  297   311     1 
  297   312     1 
  298   300     1 
  298   301     1 
  298   302     1 
  298   309     1 
  298   310     1 
  299   306     1 
  299   307     1 
  299   309     1 
  299   310     1 
  300   303     1 
  300   304     1 
  300   305     1 
  300   308     1 
  301   303     1 
  301   304     1 
  301   305     1 
  301   308     1 
  302   308     1 
  303   306     1 
  303   307     1 
  304   306     1 
  304   307     1 
  308   313     1 
  308   314     1 
  308   328     1 
  309   311     1 
  309   312     1 
  310   315     1 
  310   316     1 
  310   317     1 
  310   329     1 
  310   330     1 
  311   313     1 
  311   314     1 
  311   328     1 
  312   318     1 
  312   324     1 
  312   331     1 
  312   332     1 
  313   315     1 
  313   316     1 
  313   317     1 
  313   329     1 
  313   330     1 
  314   319     1 
  314   320     1 
  314   325     1 
  314   326     1 
  314   329     1 
  314   330     1 
  315   318     1 
  315   324     1 
  315   328     1 
  316   318     1 
  316   324     1 
  316   328     1 
  317   321     1 
  317   322     1 
  317   327     1 
  317   328     1 
  318   323     1 
  318   325     1 
  318   326     1 
  319   321     1 
  319   322     1 
  319   324     1 
  320   324     1 
  320   327     1 
  321   323     1 
  321   326     1 
  322   325     1 
  323   324     1 
  323   327     1 
  325   327     1 
  328   333     1 
  328   334     1 
  328   344     1 
  329   331     1 
  329   332     1 
  330   335     1 
  330   336     1 
  330   340     1 
  330   345     1 
  330   346     1 
  331   333     1 
  331   334     1 
  331   344     1 
  332   337     1 
  332   338     1 
  332   339     1 
  332   341     1 
  332   342     1 
  332   343     1 
  332   347     1 
  332   348     1 
  333   335     1 
  333   336     1 
  333   340     1 
  333   345     1 
  333   346     1 
  334   345     1 
  334   346     1 
  335   337     1 
  335   338     1 
  335   339     1 
  335   341     1 
  335   342     1 
  335   343     1 
  335   344     1 
  336   341     1 
  336   342     1 
  336   343     1 
  336   344     1 
  337   340     1 
  338   340     1 
  339   340     1 
  340   344     1 
  344   349     1 
  344   350     1 
  344   356     1 
  345   347     1 
  345   348     1 
  346   351     1 
  346   352     1 
  346   353     1 
  346   357     1 
  346   358     1 
  347   349     1 
  347   350     1 
  347   356     1 
  348   354     1 
  348   355     1 
  348   359     1 
  348   360     1 
  349   351     1 
  349   352     1 
  349   353     1 
  349   357     1 
  349   358     1 
  350   357     1 
  350   358     1 
  351   354     1 
  351   355     1 
  351   356     1 
  352   354     1 
  352   355     1 
  352   356     1 
  353   356     1 
  356   361     1 
  356   362     1 
  356   367     1 
  357   359     1 
  357   360     1 
  358   363     1 
  358   364     1 
  358   365     1 
  358   368     1 
  358   369     1 
  359   361     1 
  359   362     1 
  359   367     1 
  360   366     1 
  360   370     1 
  360   371     1 
  361   363     1 
  361   364     1 
  361   365     1 
  361   368     1 
  361   369     1 
  362   368     1 
  362   369     1 
  363   366     1 
  363   367     1 
  364   366     1 
  364   367     1 
  365   367     1 
  367   372     1 
  367   373     1 
  367   387     1 
  368   370     1 
  368   371     1 
  369   374     1 
  369   375     1 
  369   376     1 
  369   388     1 
  369   389     1 
  370   372     1 
  370   373     1 
  370   387     1 
  371   377     1 
  371   383     1 
  371   390     1 
  371   391     1 
  372   374     1 
  372   375     1 
  372   376     1 
  372   388     1 
  372   389     1 
  373   378     1 
  373   379     1 
  373   384     1 
  373   385     1 
  373   388     1 
  373   389     1 
  374   377     1 
  374   383     1 
  374   387     1 
  375   377     1 
  375   383     1 
  375   387     1 
  376   380     1 
  376   381     1 
  376   386     1 
  376   387     1 
  377   382     1 
  377   384     1 
  377   385     1 
  378   380     1 
  378   381     1 
  378   383     1 
  379   383     1 
  379   386     1 
  380   382     1 
  380   385     1 
  381   384     1 
  382   383     1 
  382   386     1 
  384   386     1 
  387   392     1 
  387   393     1 
  387   409     1 
  388   390     1 
  388   391     1 
  389   394     1 
  389   395     1 
  389   396     1 
  389   410     1 
  389   411     1 
  390   392     1 
  390   393     1 
  390   409     1 
  391   397     1 
  391   398     1 
  391   399     1 
  391   412     1 
  391   413     1 
  392   394     1 
  392   395     1 
  392   396     1 
  392   410     1 
  392   411     1 
  393   400     1 
  393   401     1 
  393   402     1 
  393   410     1 
  393   411     1 
  394   397     1 
  394   398     1 
  394   399     1 
  394   409     1 
  395   397     1 
  395   398     1 
  395   399     1 
  395   409     1 
  396   403     1 
  396   404     1 
  396   405     1 
  396   409     1 
  397   400     1 
  397   401     1 
  397   402     1 
  398   400     1 
  398   401     1 
  398   402     1 
  399   406     1 
  399   407     1 
  399   408     1 
  400   403     1 
  400   404     1 
  400   405     1 
  401   403     1 
  401   404     1 
  401   405     1 
  403   406     1 
  403   407     1 
  403   408     1 
  404   406     1 
  404   407     1 
  404   408     1 
  409   414     1 
  409   415     1 
  409   431     1 
  410   412     1 
  410   413     1 
  411   416     1 
  411   417     1 
  411   418     1 
  411   432     1 
  411   433     1 
  412   414     1 
  412   415     1 
  412   431     1 
  413   419     1 
  413   420     1 
  413   421     1 
  414   416     1 
  414   417     1 
  414   418     1 
  414   432     1 
  414   433     1 
  415   422     1 
  415   423     1 
  415   424     1 
  415   432     1 
  415   433     1 
  416   419     1 
  416   420     1 
  416   421     1 
  416   431     1 
  417   419     1 
  417   420     1 
  417   421     1 
  417   431     1 
  418   425     1 
  418   426     1 
  418   427     1 
  418   431     1 
  419   422     1 
  419   423     1 
  419   424     1 
  420   422     1 
  420   423     1 
  420   424     1 
  421   428     1 
  421   429     1 
  421   430     1 
  422   425     1 
  422   426     1 
  422   427     1 
  423   425     1 
  423   426     1 
  423   427     1 
  425   428     1 
  425   429     1 
  425   430     1 
  426   428     1 
  426   429     1 
  426   430     1 

[ angles ]
;  ai    aj    ak funct            c0            c1            c2            c3
    2     1     3     5 
    2     1     4     5 
    2     1     5     5 
    3     1     4     5 
    3     1     5     5 
    4     1     5     5 
    1     5     6     5 
    1     5     7     5 
    1     5    15     5 
    6     5     7     5 
    6     5    15     5 
    7     5    15     5 
    5     7     8     5 
    5     7     9     5 
    5     7    10     5 
    8     7     9     5 
    8     7    10     5 
    9     7    10     5 
    7    10    11     5 
    7    10    12     5 
   11    10    12     5 
   10    12    13     5 
   10    12    14     5 
   13    12    14     5 
    5    15    16     5 
    5    15    17     5 
   16    15    17     5 
   15    17    18     5 
   15    17    19     5 
   18    17    19     5 
   17    19    20     5 
   17    19    21     5 
   17    19    34     5 
   20    19    21     5 
   20    19    34     5 
   21    19    34     5 
   19    21    22     5 
   19    21    23     5 
   19    21    24     5 
   22    21    23     5 
   22    21    24     5 
   23    21    24     5 
   21    24    25     5 
   21    24    26     5 
   21    24    30     5 
   25    24    26     5 
   25    24    30     5 
   26    24    30     5 
   24    26    27     5 
   24    26    28     5 
   24    26    29     5 
   27    26    28     5 
   27    26    29     5 
   28    26    29     5 
   24    30    31     5 
   24    30    32     5 
   24    30    33     5 
   31    30    32     5 
   31    30    33     5 
   32    30    33     5 
   19    34    35     5 
   19    34    36     5 
   35    34    36     5 
   34    36    37     5 
   34    36    38     5 
   37    36    38     5 
   36    38    39     5 
   36    38    40     5 
   36    38    58     5 
   39    38    40     5 
   39    38    58     5 
   40    38    58     5 
   38    40    41     5 
   38    40    42     5 
   38    40    43     5 
   41    40    42     5 
   41    40    43     5 
   42    40    43     5 
   40    43    44     5 
   40    43    49     5 
   44    43    49     5 
   43    44    45     5 
   43    44    46     5 
   45    44    46     5 
   44    46    47     5 
   44    46    48     5 
   47    46    48     5 
   46    48    49     5 
   46    48    54     5 
   49    48    54     5 
   43    49    48     5 
   43    49    50     5 
   48    49    50     5 
   49    50    51     5 
   49    50    52     5 
   51    50    52     5 
   50    52    53     5 
   50    52    56     5 
   53    52    56     5 
   48    54    55     5 
   48    54    56     5 
   55    54    56     5 
   52    56    54     5 
   52    56    57     5 
   54    56    57     5 
   38    58    59     5 
   38    58    60     5 
   59    58    60     5 
   58    60    61     5 
   58    60    62     5 
   61    60    62     5 
   60    62    63     5 
   60    62    64     5 
   60    62    68     5 
   63    62    64     5 
   63    62    68     5 
   64    62    68     5 
   62    64    65     5 
   62    64    66     5 
   62    64    67     5 
   65    64    66     5 
   65    64    67     5 
   66    64    67     5 
   62    68    69     5 
   62    68    70     5 
   69    68    70     5 
   68    70    71     5 
   68    70    72     5 
   71    70    72     5 
   70    72    73     5 
   70    72    74     5 
   70    72    78     5 
   73    72    74     5 
   73    72    78     5 
   74    72    78     5 
   72    74    75     5 
   72    74    76     5 
   72    74    77     5 
   75    74    76     5 
   75    74    77     5 
   76    74    77     5 
   72    78    79     5 
   72    78    80     5 
   79    78    80     5 
   78    80    81     5 
   78    80    82     5 
   81    80    82     5 
   80    82    83     5 
   80    82    84     5 
   80    82    95     5 
   83    82    84     5 
   83    82    95     5 
   84    82    95     5 
   82    84    85     5 
   82    84    86     5 
   82    84    87     5 
   85    84    86     5 
   85    84    87     5 
   86    84    87     5 
   84    87    88     5 
   84    87    89     5 
   84    87    90     5 
   88    87    89     5 
   88    87    90     5 
   89    87    90     5 
   87    90    91     5 
   87    90    92     5 
   91    90    92     5 
   90    92    93     5 
   90    92    94     5 
   93    92    94     5 
   82    95    96     5 
   82    95    97     5 
   96    95    97     5 
   95    97    98     5 
   95    97    99     5 
   98    97    99     5 
   97    99   100     5 
   97    99   101     5 
   97    99   119     5 
  100    99   101     5 
  100    99   119     5 
  101    99   119     5 
   99   101   102     5 
   99   101   103     5 
   99   101   104     5 
  102   101   103     5 
  102   101   104     5 
  103   101   104     5 
  101   104   105     5 
  101   104   106     5 
  101   104   107     5 
  105   104   106     5 
  105   104   107     5 
  106   104   107     5 
  104   107   108     5 
  104   107   109     5 
  104   107   110     5 
  108   107   109     5 
  108   107   110     5 
  109   107   110     5 
  107   110   111     5 
  107   110   112     5 
  111   110   112     5 
  110   112   113     5 
  110   112   116     5 
  113   112   116     5 
  112   113   114     5 
  112   113   115     5 
  114   113   115     5 
  112   116   117     5 
  112   116   118     5 
  117   116   118     5 
   99   119   120     5 
   99   119   121     5 
  120   119   121     5 
  119   121   122     5 
  119   121   123     5 
  122   121   123     5 
  121   123   124     5 
  121   123   125     5 
  121   123   140     5 
  124   123   125     5 
  124   123   140     5 
  125   123   140     5 
  123   125   126     5 
  123   125   127     5 
  123   125   128     5 
  126   125   127     5 
  126   125   128     5 
  127   125   128     5 
  125   128   129     5 
  125   128   136     5 
  129   128   136     5 
  128   129   130     5 
  128   129   131     5 
  130   129   131     5 
  129   131   132     5 
  129   131   133     5 
  132   131   133     5 
  131   133   134     5 
  131   133   138     5 
  134   133   138     5 
  133   134   135     5 
  128   136   137     5 
  128   136   138     5 
  137   136   138     5 
  133   138   136     5 
  133   138   139     5 
  136   138   139     5 
  123   140   141     5 
  123   140   142     5 
  141   140   142     5 
  140   142   143     5 
  140   142   144     5 
  143   142   144     5 
  142   144   145     5 
  142   144   146     5 
  142   144   147     5 
  145   144   146     5 
  145   144   147     5 
  146   144   147     5 
  144   147   148     5 
  144   147   149     5 
  148   147   149     5 
  147   149   150     5 
  147   149   151     5 
  150   149   151     5 
  149   151   152     5 
  149   151   153     5 
  149   151   171     5 
  152   151   153     5 
  152   151   171     5 
  153   151   171     5 
  151   153   154     5 
  151   153   155     5 
  151   153   156     5 
  154   153   155     5 
  154   153   156     5 
  155   153   156     5 
  153   156   157     5 
  153   156   158     5 
  153   156   159     5 
  157   156   158     5 
  157   156   159     5 
  158   156   159     5 
  156   159   160     5 
  156   159   161     5 
  156   159   162     5 
  160   159   161     5 
  160   159   162     5 
  161   159   162     5 
  159   162   163     5 
  159   162   164     5 
  163   162   164     5 
  162   164   165     5 
  162   164   168     5 
  165   164   168     5 
  164   165   166     5 
  164   165   167     5 
  166   165   167     5 
  164   168   169     5 
  164   168   170     5 
  169   168   170     5 
  151   171   172     5 
  151   171   173     5 
  172   171   173     5 
  171   173   174     5 
  171   173   175     5 
  174   173   175     5 
  173   175   176     5 
  173   175   177     5 
  173   175   186     5 
  176   175   177     5 
  176   175   186     5 
  177   175   186     5 
  175   177   178     5 
  175   177   179     5 
  175   177   180     5 
  178   177   179     5 
  178   177   180     5 
  179   177   180     5 
  177   180   181     5 
  177   180   182     5 
  177   180   183     5 
  181   180   182     5 
  181   180   183     5 
  182   180   183     5 
  180   183   184     5 
  180   183   185     5 
  184   183   185     5 
  175   186   187     5 
  175   186   188     5 
  187   186   188     5 
  186   188   189     5 
  186   188   190     5 
  189   188   190     5 
  188   190   191     5 
  188   190   192     5 
  188   190   205     5 
  191   190   192     5 
  191   190   205     5 
  192   190   205     5 
  190   192   193     5 
  190   192   194     5 
  190   192   195     5 
  193   192   194     5 
  193   192   195     5 
  194   192   195     5 
  192   195   196     5 
  192   195   197     5 
  192   195   201     5 
  196   195   197     5 
  196   195   201     5 
  197   195   201     5 
  195   197   198     5 
  195   197   199     5 
  195   197   200     5 
  198   197   199     5 
  198   197   200     5 
  199   197   200     5 
  195   201   202     5 
  195   201   203     5 
  195   201   204     5 
  202   201   203     5 
  202   201   204     5 
  203   201   204     5 
  190   205   206     5 
  190   205   207     5 
  206   205   207     5 
  205   207   208     5 
  205   207   209     5 
  208   207   209     5 
  207   209   210     5 
  207   209   211     5 
  207   209   229     5 
  210   209   211     5 
  210   209   229     5 
  211   209   229     5 
  209   211   212     5 
  209   211   213     5 
  209   211   214     5 
  212   211   213     5 
  212   211   214     5 
  213   211   214     5 
  211   214   215     5 
  211   214   216     5 
  211   214   217     5 
  215   214   216     5 
  215   214   217     5 
  216   214   217     5 
  214   217   218     5 
  214   217   219     5 
  214   217   220     5 
  218   217   219     5 
  218   217   220     5 
  219   217   220     5 
  217   220   221     5 
  217   220   222     5 
  221   220   222     5 
  220   222   223     5 
  220   222   226     5 
  223   222   226     5 
  222   223   224     5 
  222   223   225     5 
  224   223   225     5 
  222   226   227     5 
  222   226   228     5 
  227   226   228     5 
  209   229   230     5 
  209   229   231     5 
  230   229   231     5 
  229   231   232     5 
  229   231   233     5 
  232   231   233     5 
  231   233   234     5 
  231   233   235     5 
  231   233   253     5 
  234   233   235     5 
  234   233   253     5 
  235   233   253     5 
  233   235   236     5 
  233   235   237     5 
  233   235   238     5 
  236   235   237     5 
  236   235   238     5 
  237   235   238     5 
  235   238   239     5 
  235   238   240     5 
  235   238   241     5 
  239   238   240     5 
  239   238   241     5 
  240   238   241     5 
  238   241   242     5 
  238   241   243     5 
  238   241   244     5 
  242   241   243     5 
  242   241   244     5 
  243   241   244     5 
  241   244   245     5 
  241   244   246     5 
  245   244   246     5 
  244   246   247     5 
  244   246   250     5 
  247   246   250     5 
  246   247   248     5 
  246   247   249     5 
  248   247   249     5 
  246   250   251     5 
  246   250   252     5 
  251   250   252     5 
  233   253   254     5 
  233   253   255     5 
  254   253   255     5 
  253   255   256     5 
  253   255   257     5 
  256   255   257     5 
  255   257   258     5 
  255   257   259     5 
  255   257   270     5 
  258   257   259     5 
  258   257   270     5 
  259   257   270     5 
  257   259   260     5 
  257   259   261     5 
  257   259   262     5 
  260   259   261     5 
  260   259   262     5 
  261   259   262     5 
  259   262   263     5 
  259   262   264     5 
  259   262   265     5 
  263   262   264     5 
  263   262   265     5 
  264   262   265     5 
  262   265   266     5 
  265   266   267     5 
  265   266   268     5 
  265   266   269     5 
  267   266   268     5 
  267   266   269     5 
  268   266   269     5 
  257   270   271     5 
  257   270   272     5 
  271   270   272     5 
  270   272   273     5 
  270   272   274     5 
  273   272   274     5 
  272   274   275     5 
  272   274   276     5 
  272   274   281     5 
  275   274   276     5 
  275   274   281     5 
  276   274   281     5 
  274   276   277     5 
  274   276   278     5 
  274   276   279     5 
  277   276   278     5 
  277   276   279     5 
  278   276   279     5 
  276   279   280     5 
  274   281   282     5 
  274   281   283     5 
  282   281   283     5 
  281   283   284     5 
  281   283   285     5 
  284   283   285     5 
  283   285   286     5 
  283   285   287     5 
  283   285   293     5 
  286   285   287     5 
  286   285   293     5 
  287   285   293     5 
  285   287   288     5 
  285   287   289     5 
  285   287   290     5 
  288   287   289     5 
  288   287   290     5 
  289   287   290     5 
  287   290   291     5 
  287   290   292     5 
  291   290   292     5 
  285   293   294     5 
  285   293   295     5 
  294   293   295     5 
  293   295   296     5 
  293   295   297     5 
  296   295   297     5 
  295   297   298     5 
  295   297   299     5 
  295   297   308     5 
  298   297   299     5 
  298   297   308     5 
  299   297   308     5 
  297   299   300     5 
  297   299   301     5 
  297   299   302     5 
  300   299   301     5 
  300   299   302     5 
  301   299   302     5 
  299   302   303     5 
  299   302   304     5 
  299   302   305     5 
  303   302   304     5 
  303   302   305     5 
  304   302   305     5 
  302   305   306     5 
  302   305   307     5 
  306   305   307     5 
  297   308   309     5 
  297   308   310     5 
  309   308   310     5 
  308   310   311     5 
  308   310   312     5 
  311   310   312     5 
  310   312   313     5 
  310   312   314     5 
  310   312   328     5 
  313   312   314     5 
  313   312   328     5 
  314   312   328     5 
  312   314   315     5 
  312   314   316     5 
  312   314   317     5 
  315   314   316     5 
  315   314   317     5 
  316   314   317     5 
  314   317   318     5 
  314   317   324     5 
  318   317   324     5 
  317   318   319     5 
  317   318   320     5 
  319   318   320     5 
  318   320   321     5 
  318   320   322     5 
  321   320   322     5 
  320   322   323     5 
  320   322   326     5 
  323   322   326     5 
  317   324   325     5 
  317   324   326     5 
  325   324   326     5 
  322   326   324     5 
  322   326   327     5 
  324   326   327     5 
  312   328   329     5 
  312   328   330     5 
  329   328   330     5 
  328   330   331     5 
  328   330   332     5 
  331   330   332     5 
  330   332   333     5 
  330   332   334     5 
  330   332   344     5 
  333   332   334     5 
  333   332   344     5 
  334   332   344     5 
  332   334   335     5 
  332   334   336     5 
  332   334   340     5 
  335   334   336     5 
  335   334   340     5 
  336   334   340     5 
  334   336   337     5 
  334   336   338     5 
  334   336   339     5 
  337   336   338     5 
  337   336   339     5 
  338   336   339     5 
  334   340   341     5 
  334   340   342     5 
  334   340   343     5 
  341   340   342     5 
  341   340   343     5 
  342   340   343     5 
  332   344   345     5 
  332   344   346     5 
  345   344   346     5 
  344   346   347     5 
  344   346   348     5 
  347   346   348     5 
  346   348   349     5 
  346   348   350     5 
  346   348   356     5 
  349   348   350     5 
  349   348   356     5 
  350   348   356     5 
  348   350   351     5 
  348   350   352     5 
  348   350   353     5 
  351   350   352     5 
  351   350   353     5 
  352   350   353     5 
  350   353   354     5 
  350   353   355     5 
  354   353   355     5 
  348   356   357     5 
  348   356   358     5 
  357   356   358     5 
  356   358   359     5 
  356   358   360     5 
  359   358   360     5 
  358   360   361     5 
  358   360   362     5 
  358   360   367     5 
  361   360   362     5 
  361   360   367     5 
  362   360   367     5 
  360   362   363     5 
  360   362   364     5 
  360   362   365     5 
  363   362   364     5 
  363   362   365     5 
  364   362   365     5 
  362   365   366     5 
  360   367   368     5 
  360   367   369     5 
  368   367   369     5 
  367   369   370     5 
  367   369   371     5 
  370   369   371     5 
  369   371   372     5 
  369   371   373     5 
  369   371   387     5 
  372   371   373     5 
  372   371   387     5 
  373   371   387     5 
  371   373   374     5 
  371   373   375     5 
  371   373   376     5 
  374   373   375     5 
  374   373   376     5 
  375   373   376     5 
  373   376   377     5 
  373   376   383     5 
  377   376   383     5 
  376   377   378     5 
  376   377   379     5 
  378   377   379     5 
  377   379   380     5 
  377   379   381     5 
  380   379   381     5 
  379   381   382     5 
  379   381   385     5 
  382   381   385     5 
  376   383   384     5 
  376   383   385     5 
  384   383   385     5 
  381   385   383     5 
  381   385   386     5 
  383   385   386     5 
  371   387   388     5 
  371   387   389     5 
  388   387   389     5 
  387   389   390     5 
  387   389   391     5 
  390   389   391     5 
  389   391   392     5 
  389   391   393     5 
  389   391   409     5 
  392   391   393     5 
  392   391   409     5 
  393   391   409     5 
  391   393   394     5 
  391   393   395     5 
  391   393   396     5 
  394   393   395     5 
  394   393   396     5 
  395   393   396     5 
  393   396   397     5 
  393   396   398     5 
  393   396   399     5 
  397   396   398     5 
  397   396   399     5 
  398   396   399     5 
  396   399   400     5 
  396   399   401     5 
  396   399   402     5 
  400   399   401     5 
  400   399   402     5 
  401   399   402     5 
  399   402   403     5 
  399   402   404     5 
  399   402   405     5 
  403   402   404     5 
  403   402   405     5 
  404   402   405     5 
  402   405   406     5 
  402   405   407     5 
  402   405   408     5 
  406   405   407     5 
  406   405   408     5 
  407   405   408     5 
  391   409   410     5 
  391   409   411     5 
  410   409   411     5 
  409   411   412     5 
  409   411   413     5 
  412   411   413     5 
  411   413   414     5 
  411   413   415     5 
  411   413   431     5 
  414   413   415     5 
  414   413   431     5 
  415   413   431     5 
  413   415   416     5 
  413   415   417     5 
  413   415   418     5 
  416   415   417     5 
  416   415   418     5 
  417   415   418     5 
  415   418   419     5 
  415   418   420     5 
  415   418   421     5 
  419   418   420     5 
  419   418   421     5 
  420   418   421     5 
  418   421   422     5 
  418   421   423     5 
  418   421   424     5 
  422   421   423     5 
  422   421   424     5 
  423   421   424     5 
  421   424   425     5 
  421   424   426     5 
  421   424   427     5 
  425   424   426     5 
  425   424   427     5 
  426   424   427     5 
  424   427   428     5 
  424   427   429     5 
  424   427   430     5 
  428   427   429     5 
  428   427   430     5 
  429   427   430     5 
  413   431   432     5 
  413   431   433     5 
  432   431   433     5 

[ dihedrals ]
;  ai    aj    ak    al funct            c0            c1            c2            c3            c4            c5
    2     1     5     6     9 
    2     1     5     7     9 
    2     1     5    15     9 
    3     1     5     6     9 
    3     1     5     7     9 
    3     1     5    15     9 
    4     1     5     6     9 
    4     1     5     7     9 
    4     1     5    15     9 
    1     5     7     8     9 
    1     5     7     9     9 
    1     5     7    10     9 
    6     5     7     8     9 
    6     5     7     9     9 
    6     5     7    10     9 
   15     5     7     8     9 
   15     5     7     9     9 
   15     5     7    10     9 
    1     5    15    16     9 
    1     5    15    17     9 
    6     5    15    16     9 
    6     5    15    17     9 
    7     5    15    16     9 
    7     5    15    17     9 
    5     7    10    11     9 
    5     7    10    12     9 
    8     7    10    11     9 
    8     7    10    12     9 
    9     7    10    11     9 
    9     7    10    12     9 
    7    10    12    13     9 
    7    10    12    14     9 
   11    10    12    13     9 
   11    10    12    14     9 
    5    15    17    18     9 
    5    15    17    19     9 
   16    15    17    18     9 
   16    15    17    19     9 
   15    17    19    20     9 
   15    17    19    21     9 
   15    17    19    34     9 
   18    17    19    20     9 
   18    17    19    21     9 
   18    17    19    34     9 
   17    19    21    22     9 
   17    19    21    23     9 
   17    19    21    24     9 
   20    19    21    22     9 
   20    19    21    23     9 
   20    19    21    24     9 
   34    19    21    22     9 
   34    19    21    23     9 
   34    19    21    24     9 
   17    19    34    35     9 
   17    19    34    36     9 
   20    19    34    35     9 
   20    19    34    36     9 
   21    19    34    35     9 
   21    19    34    36     9 
   19    21    24    25     9 
   19    21    24    26     9 
   19    21    24    30     9 
   22    21    24    25     9 
   22    21    24    26     9 
   22    21    24    30     9 
   23    21    24    25     9 
   23    21    24    26     9 
   23    21    24    30     9 
   21    24    26    27     9 
   21    24    26    28     9 
   21    24    26    29     9 
   25    24    26    27     9 
   25    24    26    28     9 
   25    24    26    29     9 
   30    24    26    27     9 
   30    24    26    28     9 
   30    24    26    29     9 
   21    24    30    31     9 
   21    24    30    32     9 
   21    24    30    33     9 
   25    24    30    31     9 
   25    24    30    32     9 
   25    24    30    33     9 
   26    24    30    31     9 
   26    24    30    32     9 
   26    24    30    33     9 
   19    34    36    37     9 
   19    34    36    38     9 
   35    34    36    37     9 
   35    34    36    38     9 
   34    36    38    39     9 
   34    36    38    40     9 
   34    36    38    58     9 
   37    36    38    39     9 
   37    36    38    40     9 
   37    36    38    58     9 
   36    38    40    41     9 
   36    38    40    42     9 
   36    38    40    43     9 
   39    38    40    41     9 
   39    38    40    42     9 
   39    38    40    43     9 
   58    38    40    41     9 
   58    38    40    42     9 
   58    38    40    43     9 
   36    38    58    59     9 
   36    38    58    60     9 
   39    38    58    59     9 
   39    38    58    60     9 
   40    38    58    59     9 
   40    38    58    60     9 
   38    40    43    44     9 
   38    40    43    49     9 
   41    40    43    44     9 
   41    40    43    49     9 
   42    40    43    44     9 
   42    40    43    49     9 
   40    43    44    45     9 
   40    43    44    46     9 
   49    43    44    45     9 
   49    43    44    46     9 
   40    43    49    48     9 
   40    43    49    50     9 
   44    43    49    48     9 
   44    43    49    50     9 
   43    44    46    47     9 
   43    44    46    48     9 
   45    44    46    47     9 
   45    44    46    48     9 
   44    46    48    49     9 
   44    46    48    54     9 
   47    46    48    49     9 
   47    46    48    54     9 
   46    48    49    43     9 
   46    48    49    50     9 
   54    48    49    43     9 
   54    48    49    50     9 
   46    48    54    55     9 
   46    48    54    56     9 
   49    48    54    55     9 
   49    48    54    56     9 
   43    49    50    51     9 
   43    49    50    52     9 
   48    49    50    51     9 
   48    49    50    52     9 
   49    50    52    53     9 
   49    50    52    56     9 
   51    50    52    53     9 
   51    50    52    56     9 
   50    52    56    54     9 
   50    52    56    57     9 
   53    52    56    54     9 
   53    52    56    57     9 
   48    54    56    52     9 
   48    54    56    57     9 
   55    54    56    52     9 
   55    54    56    57     9 
   38    58    60    61     9 
   38    58    60    62     9 
   59    58    60    61     9 
   59    58    60    62     9 
   58    60    62    63     9 
   58    60    62    64     9 
   58    60    62    68     9 
   61    60    62    63     9 
   61    60    62    64     9 
   61    60    62    68     9 
   60    62    64    65     9 
   60    62    64    66     9 
   60    62    64    67     9 
   63    62    64    65     9 
   63    62    64    66     9 
   63    62    64    67     9 
   68    62    64    65     9 
   68    62    64    66     9 
   68    62    64    67     9 
   60    62    68    69     9 
   60    62    68    70     9 
   63    62    68    69     9 
   63    62    68    70     9 
   64    62    68    69     9 
   64    62    68    70     9 
   62    68    70    71     9 
   62    68    70    72     9 
   69    68    70    71     9 
   69    68    70    72     9 
   68    70    72    73     9 
   68    70    72    74     9 
   68    70    72    78     9 
   71    70    72    73     9 
   71    70    72    74     9 
   71    70    72    78     9 
   70    72    74    75     9 
   70    72    74    76     9 
   70    72    74    77     9 
   73    72    74    75     9 
   73    72    74    76     9 
   73    72    74    77     9 
   78    72    74    75     9 
   78    72    74    76     9 
   78    72    74    77     9 
   70    72    78    79     9 
   70    72    78    80     9 
   73    72    78    79     9 
   73    72    78    80     9 
   74    72    78    79     9 
   74    72    78    80     9 
   72    78    80    81     9 
   72    78    80    82     9 
   79    78    80    81     9 
   79    78    80    82     9 
   78    80    82    83     9 
   78    80    82    84     9 
   78    80    82    95     9 
   81    80    82    83     9 
   81    80    82    84     9 
   81    80    82    95     9 
   80    82    84    85     9 
   80    82    84    86     9 
   80    82    84    87     9 
   83    82    84    85     9 
   83    82    84    86     9 
   83    82    84    87     9 
   95    82    84    85     9 
   95    82    84    86     9 
   95    82    84    87     9 
   80    82    95    96     9 
   80    82    95    97     9 
   83    82    95    96     9 
   83    82    95    97     9 
   84    82    95    96     9 
   84    82    95    97     9 
   82    84    87    88     9 
   82    84    87    89     9 
   82    84    87    90     9 
   85    84    87    88     9 
   85    84    87    89     9 
   85    84    87    90     9 
   86    84    87    88     9 
   86    84    87    89     9 
   86    84    87    90     9 
   84    87    90    91     9 
   84    87    90    92     9 
   88    87    90    91     9 
   88    87    90    92     9 
   89    87    90    91     9 
   89    87    90    92     9 
   87    90    92    93     9 
   87    90    92    94     9 
   91    90    92    93     9 
   91    90    92    94     9 
   82    95    97    98     9 
   82    95    97    99     9 
   96    95    97    98     9 
   96    95    97    99     9 
   95    97    99   100     9 
   95    97    99   101     9 
   95    97    99   119     9 
   98    97    99   100     9 
   98    97    99   101     9 
   98    97    99   119     9 
   97    99   101   102     9 
   97    99   101   103     9 
   97    99   101   104     9 
  100    99   101   102     9 
  100    99   101   103     9 
  100    99   101   104     9 
  119    99   101   102     9 
  119    99   101   103     9 
  119    99   101   104     9 
   97    99   119   120     9 
   97    99   119   121     9 
  100    99   119   120     9 
  100    99   119   121     9 
  101    99   119   120     9 
  101    99   119   121     9 
   99   101   104   105     9 
   99   101   104   106     9 
   99   101   104   107     9 
  102   101   104   105     9 
  102   101   104   106     9 
  102   101   104   107     9 
  103   101   104   105     9 
  103   101   104   106     9 
  103   101   104   107     9 
  101   104   107   108     9 
  101   104   107   109     9 
  101   104   107   110     9 
  105   104   107   108     9 
  105   104   107   109     9 
  105   104   107   110     9 
  106   104   107   108     9 
  106   104   107   109     9 
  106   104   107   110     9 
  104   107   110   111     9 
  104   107   110   112     9 
  108   107   110   111     9 
  108   107   110   112     9 
  109   107   110   111     9 
  109   107   110   112     9 
  107   110   112   113     9 
  107   110   112   116     9 
  111   110   112   113     9 
  111   110   112   116     9 
  110   112   113   114     9 
  110   112   113   115     9 
  116   112   113   114     9 
  116   112   113   115     9 
  110   112   116   117     9 
  110   112   116   118     9 
  113   112   116   117     9 
  113   112   116   118     9 
   99   119   121   122     9 
   99   119   121   123     9 
  120   119   121   122     9 
  120   119   121   123     9 
  119   121   123   124     9 
  119   121   123   125     9 
  119   121   123   140     9 
  122   121   123   124     9 
  122   121   123   125     9 
  122   121   123   140     9 
  121   123   125   126     9 
  121   123   125   127     9 
  121   123   125   128     9 
  124   123   125   126     9 
  124   123   125   127     9 
  124   123   125   128     9 
  140   123   125   126     9 
  140   123   125   127     9 
  140   123   125   128     9 
  121   123   140   141     9 
  121   123   140   142     9 
  124   123   140   141     9 
  124   123   140   142     9 
  125   123   140   141     9 
  125   123   140   142     9 
  123   125   128   129     9 
  123   125   128   136     9 
  126   125   128   129     9 
  126   125   128   136     9 
  127   125   128   129     9 
  127   125   128   136     9 
  125   128   129   130     9 
  125   128   129   131     9 
  136   128   129   130     9 
  136   128   129   131     9 
  125   128   136   137     9 
  125   128   136   138     9 
  129   128   136   137     9 
  129   128   136   138     9 
  128   129   131   132     9 
  128   129   131   133     9 
  130   129   131   132     9 
  130   129   131   133     9 
  129   131   133   134     9 
  129   131   133   138     9 
  132   131   133   134     9 
  132   131   133   138     9 
  131   133   134   135     9 
  138   133   134   135     9 
  131   133   138   136     9 
  131   133   138   139     9 
  134   133   138   136     9 
  134   133   138   139     9 
  128   136   138   133     9 
  128   136   138   139     9 
  137   136   138   133     9 
  137   136   138   139     9 
  123   140   142   143     9 
  123   140   142   144     9 
  141   140   142   143     9 
  141   140   142   144     9 
  140   142   144   145     9 
  140   142   144   146     9 
  140   142   144   147     9 
  143   142   144   145     9 
  143   142   144   146     9 
  143   142   144   147     9 
  142   144   147   148     9 
  142   144   147   149     9 
  145   144   147   148     9 
  145   144   147   149     9 
  146   144   147   148     9 
  146   144   147   149     9 
  144   147   149   150     9 
  144   147   149   151     9 
  148   147   149   150     9 
  148   147   149   151     9 
  147   149   151   152     9 
  147   149   151   153     9 
  147   149   151   171     9 
  150   149   151   152     9 
  150   149   151   153     9 
  150   149   151   171     9 
  149   151   153   154     9 
  149   151   153   155     9 
  149   151   153   156     9 
  152   151   153   154     9 
  152   151   153   155     9 
  152   151   153   156     9 
  171   151   153   154     9 
  171   151   153   155     9 
  171   151   153   156     9 
  149   151   171   172     9 
  149   151   171   173     9 
  152   151   171   172     9 
  152   151   171   173     9 
  153   151   171   172     9 
  153   151   171   173     9 
  151   153   156   157     9 
  151   153   156   158     9 
  151   153   156   159     9 
  154   153   156   157     9 
  154   153   156   158     9 
  154   153   156   159     9 
  155   153   156   157     9 
  155   153   156   158     9 
  155   153   156   159     9 
  153   156   159   160     9 
  153   156   159   161     9 
  153   156   159   162     9 
  157   156   159   160     9 
  157   156   159   161     9 
  157   156   159   162     9 
  158   156   159   160     9 
  158   156   159   161     9 
  158   156   159   162     9 
  156   159   162   163     9 
  156   159   162   164     9 
  160   159   162   163     9 
  160   159   162   164     9 
  161   159   162   163     9 
  161   159   162   164     9 
  159   162   164   165     9 
  159   162   164   168     9 
  163   162   164   165     9 
  163   162   164   168     9 
  162   164   165   166     9 
  162   164   165   167     9 
  168   164   165   166     9 
  168   164   165   167     9 
  162   164   168   169     9 
  162   164   168   170     9 
  165   164   168   169     9 
  165   164   168   170     9 
  151   171   173   174     9 
  151   171   173   175     9 
  172   171   173   174     9 
  172   171   173   175     9 
  171   173   175   176     9 
  171   173   175   177     9 
  171   173   175   186     9 
  174   173   175   176     9 
  174   173   175   177     9 
  174   173   175   186     9 
  173   175   177   178     9 
  173   175   177   179     9 
  173   175   177   180     9 
  176   175   177   178     9 
  176   175   177   179     9 
  176   175   177   180     9 
  186   175   177   178     9 
  186   175   177   179     9 
  186   175   177   180     9 
  173   175   186   187     9 
  173   175   186   188     9 
  176   175   186   187     9 
  176   175   186   188     9 
  177   175   186   187     9 
  177   175   186   188     9 
  175   177   180   181     9 
  175   177   180   182     9 
  175   177   180   183     9 
  178   177   180   181     9 
  178   177   180   182     9 
  178   177   180   183     9 
  179   177   180   181     9 
  179   177   180   182     9 
  179   177   180   183     9 
  177   180   183   184     9 
  177   180   183   185     9 
  181   180   183   184     9 
  181   180   183   185     9 
  182   180   183   184     9 
  182   180   183   185     9 
  175   186   188   189     9 
  175   186   188   190     9 
  187   186   188   189     9 
  187   186   188   190     9 
  186   188   190   191     9 
  186   188   190   192     9 
  186   188   190   205     9 
  189   188   190   191     9 
  189   188   190   192     9 
  189   188   190   205     9 
  188   190   192   193     9 
  188   190   192   194     9 
  188   190   192   195     9 
  191   190   192   193     9 
  191   190   192   194     9 
  191   190   192   195     9 
  205   190   192   193     9 
  205   190   192   194     9 
  205   190   192   195     9 
  188   190   205   206     9 
  188   190   205   207     9 
  191   190   205   206     9 
  191   190   205   207     9 
  192   190   205   206     9 
  192   190   205   207     9 
  190   192   195   196     9 
  190   192   195   197     9 
  190   192   195   201     9 
  193   192   195   196     9 
  193   192   195   197     9 
  193   192   195   201     9 
  194   192   195   196     9 
  194   192   195   197     9 
  194   192   195   201     9 
  192   195   197   198     9 
  192   195   197   199     9 
  192   195   197   200     9 
  196   195   197   198     9 
  196   195   197   199     9 
  196   195   197   200     9 
  201   195   197   198     9 
  201   195   197   199     9 
  201   195   197   200     9 
  192   195   201   202     9 
  192   195   201   203     9 
  192   195   201   204     9 
  196   195   201   202     9 
  196   195   201   203     9 
  196   195   201   204     9 
  197   195   201   202     9 
  197   195   201   203     9 
  197   195   201   204     9 
  190   205   207   208     9 
  190   205   207   209     9 
  206   205   207   208     9 
  206   205   207   209     9 
  205   207   209   210     9 
  205   207   209   211     9 
  205   207   209   229     9 
  208   207   209   210     9 
  208   207   209   211     9 
  208   207   209   229     9 
  207   209   211   212     9 
  207   209   211   213     9 
  207   209   211   214     9 
  210   209   211   212     9 
  210   209   211   213     9 
  210   209   211   214     9 
  229   209   211   212     9 
  229   209   211   213     9 
  229   209   211   214     9 
  207   209   229   230     9 
  207   209   229   231     9 
  210   209   229   230     9 
  210   209   229   231     9 
  211   209   229   230     9 
  211   209   229   231     9 
  209   211   214   215     9 
  209   211   214   216     9 
  209   211   214   217     9 
  212   211   214   215     9 
  212   211   214   216     9 
  212   211   214   217     9 
  213   211   214   215     9 
  213   211   214   216     9 
  213   211   214   217     9 
  211   214   217   218     9 
  211   214   217   219     9 
  211   214   217   220     9 
  215   214   217   218     9 
  215   214   217   219     9 
  215   214   217   220     9 
  216   214   217   218     9 
  216   214   217   219     9 
  216   214   217   220     9 
  214   217   220   221     9 
  214   217   220   222     9 
  218   217   220   221     9 
  218   217   220   222     9 
  219   217   220   221     9 
  219   217   220   222     9 
  217   220   222   223     9 
  217   220   222   226     9 
  221   220   222   223     9 
  221   220   222   226     9 
  220   222   223   224     9 
  220   222   223   225     9 
  226   222   223   224     9 
  226   222   223   225     9 
  220   222   226   227     9 
  220   222   226   228     9 
  223   222   226   227     9 
  223   222   226   228     9 
  209   229   231   232     9 
  209   229   231   233     9 
  230   229   231   232     9 
  230   229   231   233     9 
  229   231   233   234     9 
  229   231   233   235     9 
  229   231   233   253     9 
  232   231   233   234     9 
  232   231   233   235     9 
  232   231   233   253     9 
  231   233   235   236     9 
  231   233   235   237     9 
  231   233   235   238     9 
  234   233   235   236     9 
  234   233   235   237     9 
  234   233   235   238     9 
  253   233   235   236     9 
  253   233   235   237     9 
  253   233   235   238     9 
  231   233   253   254     9 
  231   233   253   255     9 
  234   233   253   254     9 
  234   233   253   255     9 
  235   233   253   254     9 
  235   233   253   255     9 
  233   235   238   239     9 
  233   235   238   240     9 
  233   235   238   241     9 
  236   235   238   239     9 
  236   235   238   240     9 
  236   235   238   241     9 
  237   235   238   239     9 
  237   235   238   240     9 
  237   235   238   241     9 
  235   238   241   242     9 
  235   238   241   243     9 
  235   238   241   244     9 
  239   238   241   242     9 
  239   238   241   243     9 
  239   238   241   244     9 
  240   238   241   242     9 
  240   238   241   243     9 
  240   238   241   244     9 
  238   241   244   245     9 
  238   241   244   246     9 
  242   241   244   245     9 
  242   241   244   246     9 
  243   241   244   245     9 
  243   241   244   246     9 
  241   244   246   247     9 
  241   244   246   250     9 
  245   244   246   247     9 
  245   244   246   250     9 
  244   246   247   248     9 
  244   246   247   249     9 
  250   246   247   248     9 
  250   246   247   249     9 
  244   246   250   251     9 
  244   246   250   252     9 
  247   246   250   251     9 
  247   246   250   252     9 
  233   253   255   256     9 
  233   253   255   257     9 
  254   253   255   256     9 
  254   253   255   257     9 
  253   255   257   258     9 
  253   255   257   259     9 
  253   255   257   270     9 
  256   255   257   258     9 
  256   255   257   259     9 
  256   255   257   270     9 
  255   257   259   260     9 
  255   257   259   261     9 
  255   257   259   262     9 
  258   257   259   260     9 
  258   257   259   261     9 
  258   257   259   262     9 
  270   257   259   260     9 
  270   257   259   261     9 
  270   257   259   262     9 
  255   257   270   271     9 
  255   257   270   272     9 
  258   257   270   271     9 
  258   257   270   272     9 
  259   257   270   271     9 
  259   257   270   272     9 
  257   259   262   263     9 
  257   259   262   264     9 
  257   259   262   265     9 
  260   259   262   263     9 
  260   259   262   264     9 
  260   259   262   265     9 
  261   259   262   263     9 
  261   259   262   264     9 
  261   259   262   265     9 
  259   262   265   266     9 
  263   262   265   266     9 
  264   262   265   266     9 
  262   265   266   267     9 
  262   265   266   268     9 
  262   265   266   269     9 
  257   270   272   273     9 
  257   270   272   274     9 
  271   270   272   273     9 
  271   270   272   274     9 
  270   272   274   275     9 
  270   272   274   276     9 
  270   272   274   281     9 
  273   272   274   275     9 
  273   272   274   276     9 
  273   272   274   281     9 
  272   274   276   277     9 
  272   274   276   278     9 
  272   274   276   279     9 
  275   274   276   277     9 
  275   274   276   278     9 
  275   274   276   279     9 
  281   274   276   277     9 
  281   274   276   278     9 
  281   274   276   279     9 
  272   274   281   282     9 
  272   274   281   283     9 
  275   274   281   282     9 
  275   274   281   283     9 
  276   274   281   282     9 
  276   274   281   283     9 
  274   276   279   280     9 
  277   276   279   280     9 
  278   276   279   280     9 
  274   281   283   284     9 
  274   281   283   285     9 
  282   281   283   284     9 
  282   281   283   285     9 
  281   283   285   286     9 
  281   283   285   287     9 
  281   283   285   293     9 
  284   283   285   286     9 
  284   283   285   287     9 
  284   283   285   293     9 
  283   285   287   288     9 
  283   285   287   289     9 
  283   285   287   290     9 
  286   285   287   288     9 
  286   285   287   289     9 
  286   285   287   290     9 
  293   285   287   288     9 
  293   285   287   289     9 
  293   285   287   290     9 
  283   285   293   294     9 
  283   285   293   295     9 
  286   285   293   294     9 
  286   285   293   295     9 
  287   285   293   294     9 
  287   285   293   295     9 
  285   287   290   291     9 
  285   287   290   292     9 
  288   287   290   291     9 
  288   287   290   292     9 
  289   287   290   291     9 
  289   287   290   292     9 
  285   293   295   296     9 
  285   293   295   297     9 
  294   293   295   296     9 
  294   293   295   297     9 
  293   295   297   298     9 
  293   295   297   299     9 
  293   295   297   308     9 
  296   295   297   298     9 
  296   295   297   299     9 
  296   295   297   308     9 
  295   297   299   300     9 
  295   297   299   301     9 
  295   297   299   302     9 
  298   297   299   300     9 
  298   297   299   301     9 
  298   297   299   302     9 
  308   297   299   300     9 
  308   297   299   301     9 
  308   297   299   302     9 
  295   297   308   309     9 
  295   297   308   310     9 
  298   297   308   309     9 
  298   297   308   310     9 
  299   297   308   309     9 
  299   297   308   310     9 
  297   299   302   303     9 
  297   299   302   304     9 
  297   299   302   305     9 
  300   299   302   303     9 
  300   299   302   304     9 
  300   299   302   305     9 
  301   299   302   303     9 
  301   299   302   304     9 
  301   299   302   305     9 
  299   302   305   306     9 
  299   302   305   307     9 
  303   302   305   306     9 
  303   302   305   307     9 
  304   302   305   306     9 
  304   302   305   307     9 
  297   308   310   311     9 
  297   308   310   312     9 
  309   308   310   311     9 
  309   308   310   312     9 
  308   310   312   313     9 
  308   310   312   314     9 
  308   310   312   328     9 
  311   310   312   313     9 
  311   310   312   314     9 
  311   310   312   328     9 
  310   312   314   315     9 
  310   312   314   316     9 
  310   312   314   317     9 
  313   312   314   315     9 
  313   312   314   316     9 
  313   312   314   317     9 
  328   312   314   315     9 
  328   312   314   316     9 
  328   312   314   317     9 
  310   312   328   329     9 
  310   312   328   330     9 
  313   312   328   329     9 
  313   312   328   330     9 
  314   312   328   329     9 
  314   312   328   330     9 
  312   314   317   318     9 
  312   314   317   324     9 
  315   314   317   318     9 
  315   314   317   324     9 
  316   314   317   318     9 
  316   314   317   324     9 
  314   317   318   319     9 
  314   317   318   320     9 
  324   317   318   319     9 
  324   317   318   320     9 
  314   317   324   325     9 
  314   317   324   326     9 
  318   317   324   325     9 
  318   317   324   326     9 
  317   318   320   321     9 
  317   318   320   322     9 
  319   318   320   321     9 
  319   318   320   322     9 
  318   320   322   323     9 
  318   320   322   326     9 
  321   320   322   323     9 
  321   320   322   326     9 
  320   322   326   324     9 
  320   322   326   327     9 
  323   322   326   324     9 
  323   322   326   327     9 
  317   324   326   322     9 
  317   324   326   327     9 
  325   324   326   322     9 
  325   324   326   327     9 
  312   328   330   331     9 
  312   328   330   332     9 
  329   328   330   331     9 
  329   328   330   332     9 
  328   330   332   333     9 
  328   330   332   334     9 
  328   330   332   344     9 
  331   330   332   333     9 
  331   330   332   334     9 
  331   330   332   344     9 
  330   332   334   335     9 
  330   332   334   336     9 
  330   332   334   340     9 
  333   332   334   335     9 
  333   332   334   336     9 
  333   332   334   340     9 
  344   332   334   335     9 
  344   332   334   336     9 
  344   332   334   340     9 
  330   332   344   345     9 
  330   332   344   346     9 
  333   332   344   345     9 
  333   332   344   346     9 
  334   332   344   345     9 
  334   332   344   346     9 
  332   334   336   337     9 
  332   334   336   338     9 
  332   334   336   339     9 
  335   334   336   337     9 
  335   334   336   338     9 
  335   334   336   339     9 
  340   334   336   337     9 
  340   334   336   338     9 
  340   334   336   339     9 
  332   334   340   341     9 
  332   334   340   342     9 
  332   334   340   343     9 
  335   334   340   341     9 
  335   334   340   342     9 
  335   334   340   343     9 
  336   334   340   341     9 
  336   334   340   342     9 
  336   334   340   343     9 
  332   344   346   347     9 
  332   344   346   348     9 
  345   344   346   347     9 
  345   344   346   348     9 
  344   346   348   349     9 
  344   346   348   350     9 
  344   346   348   356     9 
  347   346   348   349     9 
  347   346   348   350     9 
  347   346   348   356     9 
  346   348   350   351     9 
  346   348   350   352     9 
  346   348   350   353     9 
  349   348   350   351     9 
  349   348   350   352     9 
  349   348   350   353     9 
  356   348   350   351     9 
  356   348   350   352     9 
  356   348   350   353     9 
  346   348   356   357     9 
  346   348   356   358     9 
  349   348   356   357     9 
  349   348   356   358     9 
  350   348   356   357     9 
  350   348   356   358     9 
  348   350   353   354     9 
  348   350   353   355     9 
  351   350   353   354     9 
  351   350   353   355     9 
  352   350   353   354     9 
  352   350   353   355     9 
  348   356   358   359     9 
  348   356   358   360     9 
  357   356   358   359     9 
  357   356   358   360     9 
  356   358   360   361     9 
  356   358   360   362     9 
  356   358   360   367     9 
  359   358   360   361     9 
  359   358   360   362     9 
  359   358   360   367     9 
  358   360   362   363     9 
  358   360   362   364     9 
  358   360   362   365     9 
  361   360   362   363     9 
  361   360   362   364     9 
  361   360   362   365     9 
  367   360   362   363     9 
  367   360   362   364     9 
  367   360   362   365     9 
  358   360   367   368     9 
  358   360   367   369     9 
  361   360   367   368     9 
  361   360   367   369     9 
  362   360   367   368     9 
  362   360   367   369     9 
  360   362   365   366     9 
  363   362   365   366     9 
  364   362   365   366     9 
  360   367   369   370     9 
  360   367   369   371     9 
  368   367   369   370     9 
  368   367   369   371     9 
  367   369   371   372     9 
  367   369   371   373     9 
  367   369   371   387     9 
  370   369   371   372     9 
  370   369   371   373     9 
  370   369   371   387     9 
  369   371   373   374     9 
  369   371   373   375     9 
  369   371   373   376     9 
  372   371   373   374     9 
  372   371   373   375     9 
  372   371   373   376     9 
  387   371   373   374     9 
  387   371   373   375     9 
  387   371   373   376     9 
  369   371   387   388     9 
  369   371   387   389     9 
  372   371   387   388     9 
  372   371   387   389     9 
  373   371   387   388     9 
  373   371   387   389     9 
  371   373   376   377     9 
  371   373   376   383     9 
  374   373   376   377     9 
  374   373   376   383     9 
  375   373   376   377     9 
  375   373   376   383     9 
  373   376   377   378     9 
  373   376   377   379     9 
  383   376   377   378     9 
  383   376   377   379     9 
  373   376   383   384     9 
  373   376   383   385     9 
  377   376   383   384     9 
  377   376   383   385     9 
  376   377   379   380     9 
  376   377   379   381     9 
  378   377   379   380     9 
  378   377   379   381     9 
  377   379   381   382     9 
  377   379   381   385     9 
  380   379   381   382     9 
  380   379   381   385     9 
  379   381   385   383     9 
  379   381   385   386     9 
  382   381   385   383     9 
  382   381   385   386     9 
  376   383   385   381     9 
  376   383   385   386     9 
  384   383   385   381     9 
  384   383   385   386     9 
  371   387   389   390     9 
  371   387   389   391     9 
  388   387   389   390     9 
  388   387   389   391     9 
  387   389   391   392     9 
  387   389   391   393     9 
  387   389   391   409     9 
  390   389   391   392     9 
  390   389   391   393     9 
  390   389   391   409     9 
  389   391   393   394     9 
  389   391   393   395     9 
  389   391   393   396     9 
  392   391   393   394     9 
  392   391   393   395     9 
  392   391   393   396     9 
  409   391   393   394     9 
  409   391   393   395     9 
  409   391   393   396     9 
  389   391   409   410     9 
  389   391   409   411     9 
  392   391   409   410     9 
  392   391   409   411     9 
  393   391   409   410     9 
  393   391   409   411     9 
  391   393   396   397     9 
  391   393   396   398     9 
  391   393   396   399     9 
  394   393   396   397     9 
  394   393   396   398     9 
  394   393   396   399     9 
  395   393   396   397     9 
  395   393   396   398     9 
  395   393   396   399     9 
  393   396   399   400     9 
  393   396   399   401     9 
  393   396   399   402     9 
  397   396   399   400     9 
  397   396   399   401     9 
  397   396   399   402     9 
  398   396   399   400     9 
  398   396   399   401     9 
  398   396   399   402     9 
  396   399   402   403     9 
  396   399   402   404     9 
  396   399   402   405     9 
  400   399   402   403     9 
  400   399   402   404     9 
  400   399   402   405     9 
  401   399   402   403     9 
  401   399   402   404     9 
  401   399   402   405     9 
  399   402   405   406     9 
  399   402   405   407     9 
  399   402   405   408     9 
  403   402   405   406     9 
  403   402   405   407     9 
  403   402   405   408     9 
  404   402   405   406     9 
  404   402   405   407     9 
  404   402   405   408     9 
  391   409   411   412     9 
  391   409   411   413     9 
  410   409   411   412     9 
  410   409   411   413     9 
  409   411   413   414     9 
  409   411   413   415     9 
  409   411   413   431     9 
  412   411   413   414     9 
  412   411   413   415     9 
  412   411   413   431     9 
  411   413   415   416     9 
  411   413   415   417     9 
  411   413   415   418     9 
  414   413   415   416     9 
  414   413   415   417     9 
  414   413   415   418     9 
  431   413   415   416     9 
  431   413   415   417     9 
  431   413   415   418     9 
  411   413   431   432     9 
  411   413   431   433     9 
  414   413   431   432     9 
  414   413   431   433     9 
  415   413   431   432     9 
  415   413   431   433     9 
  413   415   418   419     9 
  413   415   418   420     9 
  413   415   418   421     9 
  416   415   418   419     9 
  416   415   418   420     9 
  416   415   418   421     9 
  417   415   418   419     9 
  417   415   418   420     9 
  417   415   418   421     9 
  415   418   421   422     9 
  415   418   421   423     9 
  415   418   421   424     9 
  419   418   421   422     9 
  419   418   421   423     9 
  419   418   421   424     9 
  420   418   421   422     9 
  420   418   421   423     9 
  420   418   421   424     9 
  418   421   424   425     9 
  418   421   424   426     9 
  418   421   424   427     9 
  422   421   424   425     9 
  422   421   424   426     9 
  422   421   424   427     9 
  423   421   424   425     9 
  423   421   424   426     9 
  423   421   424   427     9 
  421   424   427   428     9 
  421   424   427   429     9 
  421   424   427   430     9 
  425   424   427   428     9 
  425   424   427   429     9 
  425   424   427   430     9 
  426   424   427   428     9 
  426   424   427   429     9 
  426   424   427   430     9 

[ dihedrals ]
;  ai    aj    ak    al funct            c0            c1            c2            c3
   10     7    12    11     2 
   10    12     7    11     2 
   12    10    14    13     2 
   12    10    13    14     2 
   15     5    17    16     2 
   17    15    19    18     2 
   34    19    36    35     2 
   36    34    38    37     2 
   58    38    60    59     2 
   60    58    62    61     2 
   68    62    70    69     2 
   70    68    72    71     2 
   78    72    80    79     2 
   80    78    82    81     2 
   90    87    92    91     2 
   90    92    87    91     2 
   92    90    94    93     2 
   92    90    93    94     2 
   95    82    97    96     2 
   97    95    99    98     2 
  110   116   113   112     2 
  112   115   114   113     2 
  112   118   117   116     2 
  119    99   121   120     2 
  121   119   123   122     2 
  140   123   142   141     2 
  142   140   144   143     2 
  147   144   149   148     2 
  149   147   151   150     2 
  162   168   165   164     2 
  164   167   166   165     2 
  164   170   169   168     2 
  171   151   173   172     2 
  173   171   175   174     2 
  183   180   185   184     2 
  186   175   188   187     2 
  188   186   190   189     2 
  205   190   207   206     2 
  207   205   209   208     2 
  220   226   223   222     2 
  222   225   224   223     2 
  222   228   227   226     2 
  229   209   231   230     2 
  231   229   233   232     2 
  244   250   247   246     2 
  246   249   248   247     2 
  246   252   251   250     2 
  253   233   255   254     2 
  255   253   257   256     2 
  270   257   272   271     2 
  272   270   274   273     2 
  281   274   283   282     2 
  283   281   285   284     2 
  290   287   292   291     2 
  293   285   295   294     2 
  295   293   297   296     2 
  305   302   307   306     2 
  308   297   310   309     2 
  310   308   312   311     2 
  328   312   330   329     2 
  330   328   332   331     2 
  344   332   346   345     2 
  346   344   348   347     2 
  353   350   355   354     2 
  356   348   358   357     2 
  358   356   360   359     2 
  367   360   369   368     2 
  369   367   371   370     2 
  387   371   389   388     2 
  389   387   391   390     2 
  409   391   411   410     2 
  411   409   413   412     2 
  431   413   433   432     2 

[ cmap ]
;  ai    aj    ak    al    am funct            c0            c1
   15    17    19    34    36     1 
   34    36    38    58    60     1 
   58    60    62    68    70     1 
   68    70    72    78    80     1 
   78    80    82    95    97     1 
   95    97    99   119   121     1 
  119   121   123   140   142     1 
  140   142   144   147   149     1 
  147   149   151   171   173     1 
  171   173   175   186   188     1 
  186   188   190   205   207     1 
  205   207   209   229   231     1 
  229   231   233   253   255     1 
  253   255   257   270   272     1 
  270   272   274   281   283     1 
  281   283   285   293   295     1 
  293   295   297   308   310     1 
  308   310   312   328   330     1 
  328   330   332   344   346     1 
  344   346   348   356   358     1 
  356   358   360   367   369     1 
  367   369   371   387   389     1 
  387   389   391   409   411     1 

; Include Position restraint file
#ifdef POSRES
#include "1G5J_Protein_chain_B_pr.itp"
#endif

